ITEM: TIMESTEP
55000
ITEM: NUMBER OF ATOMS
8948
ITEM: BOX BOUNDS pp pp ff
-1.0030495445016454e+00 1.4897904954449837e+02
-2.2231699999999996e+00 1.5334416999999999e+02
-1.0000000000000000e+02 1.0000000000000000e+02
ITEM: ATOMS id type x y z f_3[1] f_3[2]
5 1 4.55266 -1.55159 -0.461757 -124312 1.66749e+06
293 1 4.52311 3.37123 -0.50406 -114670 1.6546e+06
6 1 3.85873 -0.349394 -0.415386 -112526 1.66983e+06
291 1 1.83115 3.36623 -0.340698 -118614 1.64495e+06
4 1 2.52333 -0.349949 -0.531897 -116392 1.64698e+06
150 1 3.87365 2.1364 -0.45235 -108509 1.6652e+06
149 1 4.54782 0.89126 -0.542131 -116029 1.6624e+06
289 1 0.430954 3.387 -0.459654 -117546 1.61202e+06
146 1 -0.203548 2.08488 -0.423795 -116828 1.61085e+06
3 1 1.79483 -1.60886 -0.452971 -92684.6 1.64006e+06
2 1 -0.296135 -0.358591 -0.630665 -106296 1.61078e+06
145 1 0.407896 0.842353 -0.593252 -99075 1.60913e+06
4269 1 147.682 70.0234 -0.311476 133488 1.58133e+06
147 1 1.7992 0.872487 -0.524928 -100098 1.64132e+06
148 1 2.49577 2.13398 -0.40796 -109098 1.64697e+06
153 1 8.74162 0.814575 -0.434288 -106411 1.63277e+06
10 1 8.06135 -0.415951 -0.577702 -120640 1.62895e+06
9 1 8.75673 -1.56694 -0.573044 -143305 1.63432e+06
8 1 6.65989 -0.338191 -0.494275 -126373 1.62774e+06
11 1 10.1236 -1.62575 -0.727096 -144080 1.61178e+06
12 1 10.8206 -0.402123 -0.748036 -117190 1.62264e+06
299 1 10.1261 3.31509 -0.773145 -100648 1.62863e+06
151 1 5.96086 0.84484 -0.543856 -114240 1.63406e+06
156 1 10.7666 2.05663 -0.741296 -104907 1.63874e+06
155 1 10.1155 0.799377 -0.664102 -110580 1.62652e+06
7 1 5.94893 -1.55048 -0.431661 -131852 1.6391e+06
152 1 6.62018 2.10283 -0.522352 -116169 1.63747e+06
295 1 5.94509 3.33291 -0.577208 -112658 1.64203e+06
154 1 8.08366 2.07114 -0.560879 -108601 1.62714e+06
297 1 8.72563 3.31288 -0.702863 -100182 1.64143e+06
303 1 14.2549 3.32677 -0.655279 -78322.7 1.58027e+06
14 1 12.1867 -0.366139 -0.615427 -117225 1.58636e+06
301 1 12.8555 3.36602 -0.779612 -79426.4 1.59131e+06
158 1 12.1676 2.11932 -0.651481 -104562 1.59315e+06
157 1 12.8469 0.868644 -0.613258 -118803 1.59417e+06
13 1 12.8613 -1.57352 -0.655639 -125392 1.58407e+06
159 1 14.2473 0.839826 -0.58707 -121137 1.57221e+06
15 1 14.2552 -1.57666 -0.531245 -127423 1.59384e+06
16 1 14.9445 -0.343215 -0.4012 -123633 1.58537e+06
160 1 14.9184 2.10319 -0.7508 -94923.5 1.57514e+06
161 1 17.0363 0.878747 -0.342919 -85051.6 1.5483e+06
18 1 16.3627 -0.336345 -0.472729 -124106 1.53881e+06
17 1 17.0298 -1.61408 -0.325236 -139386 1.55186e+06
162 1 16.3234 2.06973 -0.541957 -101384 1.54617e+06
305 1 17.0612 3.33132 -0.461742 -122106 1.54722e+06
3362 1 49.7735 56.3883 -0.0536918 -160111 1.89731e+06
21 1 21.1523 -1.64563 -0.176511 -105284 1.57314e+06
164 1 19.1045 2.11699 -0.228372 -83316.7 1.59898e+06
163 1 18.4548 0.904072 -0.235239 -85545.9 1.594e+06
20 1 19.1251 -0.381983 -0.195969 -106048 1.59171e+06
307 1 18.4572 3.32016 -0.265762 -113460 1.5772e+06
19 1 18.4129 -1.57671 -0.269421 -143607 1.58006e+06
166 1 20.5115 2.10899 -0.153852 -83180 1.57205e+06
3809 1 97.458 62.4731 0.176531 289459 3.12274e+06
24 1 23.2305 -0.470377 0.0966883 -94456.8 1.56368e+06
23 1 22.5766 -1.70783 -0.0741148 -111977 1.56954e+06
309 1 21.2559 3.33734 -0.0739486 -93840 1.56776e+06
49 1 50.3523 -1.64361 -0.436521 -13253.7 1.42311e+06
4414 1 148.358 73.6852 -0.509849 130685 1.57236e+06
4409 1 143.388 72.484 -0.354166 132280 1.59411e+06
4265 1 143.454 69.9815 -0.355823 141065 1.60194e+06
3567 1 114.232 57.6875 -0.200841 116717 1.72261e+06
4266 1 144.131 71.2004 -0.358604 159306 1.58408e+06
3700 1 114.916 61.313 -0.172861 186724 1.69813e+06
194 1 49.6544 2.02648 -0.223178 -4871.61 1.43156e+06
193 1 50.2955 0.793762 -0.29462 -2757.04 1.4299e+06
4541 1 147.594 74.9125 -0.508679 154528 1.58344e+06
337 1 50.3315 3.27728 -0.189735 -3187.31 1.44496e+06
105 1 108.725 -1.634 -0.162476 -48854.1 1.47677e+06
329 1 42.0162 3.30222 -0.0940003 -54613.7 1.45097e+06
186 1 41.3385 2.04344 0.00477372 -62424.7 1.4422e+06
3564 1 110.72 58.7975 -0.330138 187270 1.76456e+06
4539 1 146.161 74.9162 -0.471125 155655 1.57958e+06
192 1 48.2798 2.06933 -0.242184 -12212.4 1.41641e+06
335 1 47.5772 3.27366 -0.298436 -37433.9 1.40673e+06
48 1 48.228 -0.390072 -0.351674 -4630.7 1.42761e+06
191 1 47.5537 0.862949 -0.405532 -32887.3 1.42803e+06
333 1 46.1464 3.21269 -0.283756 -33059.3 1.40718e+06
190 1 45.5007 1.98206 -0.175972 -43975.8 1.40923e+06
189 1 46.1707 0.777394 -0.22878 -33905.1 1.41707e+06
44 1 44.087 -0.460142 -0.130803 -34469.9 1.40456e+06
46 1 45.4917 -0.461704 -0.230743 -32161.6 1.41571e+06
3352 1 40.0137 56.3934 0.0813548 74476.8 1.82272e+06
188 1 44.1045 2.0479 -0.162879 -37906 1.4214e+06
249 1 108.682 0.793916 0.0728944 -70114.3 1.46614e+06
45 1 46.1889 -1.64985 -0.227496 -34693.7 1.418e+06
47 1 47.5637 -1.60616 -0.325176 -23458 1.41763e+06
195 1 51.6968 0.791306 -0.143139 -4547.68 1.43548e+06
3821 1 110.037 62.5422 -0.0929663 250005 1.75629e+06
4410 1 144.019 73.7678 -0.28943 157150 1.60279e+06
4537 1 143.376 75.0389 -0.241688 149188 1.59114e+06
4267 1 146.262 69.9886 -0.316716 135248 1.57726e+06
3565 1 112.841 57.6576 -0.249928 120202 1.71373e+06
50 1 49.623 -0.42825 -0.473438 -3923.11 1.42703e+06
3697 1 112.765 60.1329 -0.259197 167969 1.71255e+06
3566 1 112.114 58.8414 -0.349996 168708 1.71743e+06
3696 1 110.713 61.3388 -0.230372 199796 1.74531e+06
3424 1 114.942 56.4585 -0.235598 78775.9 1.71974e+06
108 1 110.802 -0.4239 -0.078435 -78978.3 1.46635e+06
3570 1 116.307 58.912 -0.373168 145431 1.70415e+06
107 1 110.105 -1.68281 -0.146098 -58007.9 1.48135e+06
251 1 110.122 0.779046 0.0805049 -70672.9 1.47205e+06
3653 1 54.6053 59.9689 0.0695107 259720 -734650
252 1 110.801 2.05731 0.0101277 -73969.3 1.46707e+06
395 1 110.108 3.29415 -0.0322716 -66767.8 1.46038e+06
3652 1 52.6468 61.3621 -0.199116 95585.7 2.36983e+06
3568 1 114.898 58.9344 -0.339025 146504 1.70139e+06
3819 1 108.627 62.5225 -0.0771788 256493 1.75361e+06
255 1 114.255 0.786138 -0.284427 -83829 1.50009e+06
257 1 117.06 0.810074 -0.224696 -108885 1.50872e+06
111 1 114.272 -1.6426 -0.40307 -67648.4 1.5104e+06
109 1 112.878 -1.61342 -0.324284 -70881.8 1.47282e+06
112 1 114.98 -0.388333 -0.323218 -80711.8 1.50036e+06
258 1 116.377 2.04557 -0.246809 -117990 1.51658e+06
114 1 116.384 -0.383354 -0.330583 -79611.1 1.51283e+06
401 1 116.977 3.31422 -0.245973 -117892 1.50858e+06
110 1 112.189 -0.401875 -0.208931 -66788 1.47854e+06
399 1 114.239 3.29975 -0.271151 -103280 1.49702e+06
253 1 112.873 0.856432 -0.117518 -93814.5 1.4797e+06
254 1 112.173 2.09284 -0.245809 -66171.6 1.47114e+06
256 1 114.966 2.01127 -0.171429 -117469 1.4869e+06
113 1 117.026 -1.6011 -0.322148 -92769.4 1.52914e+06
117 1 121.169 -1.58116 -0.292206 -82100.1 1.58153e+06
120 1 123.285 -0.389092 -0.306092 -97559.3 1.59352e+06
118 1 120.525 -0.361764 -0.299735 -87802.9 1.57101e+06
259 1 118.463 0.865074 -0.236276 -108450 1.55402e+06
260 1 119.096 2.1079 -0.411832 -141094 1.54324e+06
3426 1 116.34 56.4481 -0.475155 72288.1 1.69916e+06
3699 1 114.172 60.135 -0.163207 168290 1.69731e+06
3698 1 112.101 61.3431 -0.201549 195378 1.71546e+06
3569 1 116.997 57.6771 -0.464708 93524.8 1.69262e+06
403 1 118.399 3.28619 -0.303162 -116836 1.53858e+06
3701 1 117.044 60.0785 -0.377123 176311 1.70635e+06
261 1 121.207 0.855915 -0.483772 -128214 1.56982e+06
116 1 119.092 -0.378805 -0.300602 -93262.7 1.56907e+06
119 1 122.535 -1.57471 -0.266105 -77219.1 1.59083e+06
115 1 118.439 -1.57933 -0.26486 -88757.6 1.5578e+06
270 1 128.906 2.06812 -0.266607 -119819 1.57014e+06
125 1 129.601 -1.63211 -0.188389 -118701 1.55485e+06
409 1 125.359 3.28659 -0.226893 -122286 1.58096e+06
265 1 125.394 0.844065 -0.116379 -105237 1.58286e+06
266 1 124.683 2.05767 -0.0825022 -124511 1.58483e+06
122 1 124.687 -0.381158 -0.17176 -97200.3 1.58728e+06
269 1 129.61 0.829762 -0.29977 -104614 1.56329e+06
126 1 128.907 -0.361848 -0.297666 -121920 1.54572e+06
267 1 126.796 0.845659 -0.169564 -109318 1.54775e+06
268 1 127.498 2.11313 -0.121866 -116022 1.55463e+06
124 1 127.52 -0.386756 -0.34654 -119382 1.54693e+06
411 1 126.786 3.32134 -0.240475 -124948 1.55393e+06
123 1 126.813 -1.6249 -0.205835 -106942 1.56791e+06
121 1 125.37 -1.66368 -0.240859 -110921 1.56752e+06
413 1 129.586 3.30184 -0.365288 -114846 1.57211e+06
419 1 135.066 3.37593 -0.191566 -107291 1.61912e+06
272 1 131.69 2.09577 -0.43186 -89726.4 1.58793e+06
273 1 133.796 0.868394 -0.159182 -74826 1.61934e+06
130 1 133.092 -0.371192 -0.205798 -81801.1 1.60673e+06
275 1 135.178 0.88571 -0.156783 -77311.1 1.62342e+06
276 1 135.787 2.15682 -0.189325 -85224.4 1.62326e+06
417 1 133.698 3.34531 -0.256717 -109006 1.59821e+06
131 1 135.14 -1.61383 -0.165449 -70398.3 1.60994e+06
132 1 135.812 -0.351231 -0.10571 -83233.7 1.61356e+06
129 1 133.803 -1.61718 -0.200814 -73031.7 1.59951e+06
415 1 130.966 3.34817 -0.379341 -122785 1.60254e+06
127 1 130.985 -1.57536 -0.166645 -112242 1.58687e+06
278 1 137.196 2.14825 -0.272388 -83700.8 1.63615e+06
277 1 137.875 0.898307 -0.30079 -83420 1.62556e+06
134 1 137.235 -0.365509 -0.186139 -86017.2 1.61984e+06
421 1 137.859 3.35586 -0.419723 -84902.4 1.64736e+06
281 1 142.061 0.897745 -0.272805 -98386.1 1.63247e+06
282 1 141.39 2.14359 -0.286087 -108917 1.62267e+06
3571 1 118.419 57.7066 -0.387204 83957.7 1.65231e+06
280 1 139.984 2.13445 -0.29161 -114402 1.62397e+06
138 1 141.375 -0.338548 -0.216415 -88964.9 1.63633e+06
136 1 139.991 -0.3381 -0.228899 -93353 1.62559e+06
4411 1 146.188 72.4581 -0.318136 161714 1.5853e+06
135 1 139.322 -1.58761 -0.209304 -98094.8 1.62901e+06
423 1 139.253 3.33027 -0.22839 -87592 1.61879e+06
425 1 142.08 3.33596 -0.291523 -84783.1 1.63386e+06
144 1 148.294 -0.354588 -0.605589 -103932 1.61224e+06
3739 1 6.00872 62.5238 -0.699305 141165 1.62483e+06
4412 1 145.451 73.6803 -0.322331 156392 1.59049e+06
427 1 143.443 3.35253 -0.232583 -91459 1.65992e+06
4270 1 148.352 71.2369 -0.584751 165379 1.58722e+06
429 1 146.228 3.3433 -0.51076 -92096.8 1.6453e+06
3463 1 5.97536 57.6014 -0.586193 157359 1.65354e+06
284 1 144.155 2.08769 -0.224551 -75868.8 1.66893e+06
4413 1 147.594 72.4598 -0.542701 167204 1.57732e+06
4533 1 139.218 75.0174 -0.380321 158725 1.59204e+06
286 1 145.527 2.11576 -0.389218 -77044.4 1.64963e+06
4531 1 137.816 75.035 -0.535087 158700 1.59277e+06
287 1 147.643 0.890182 -0.579482 -93256.7 1.61706e+06
431 1 147.649 3.35942 -0.518725 -90519.2 1.61812e+06
288 1 148.361 2.12139 -0.546045 -117054 1.6105e+06
435 1 1.76923 5.83229 -0.312059 -109288 1.65181e+06
292 1 2.46727 4.617 -0.361801 -127346 1.64513e+06
577 1 0.329426 8.30927 -0.316043 -113365 1.64323e+06
294 1 3.85286 4.57271 -0.387041 -131962 1.64387e+06
579 1 1.7579 8.32028 -0.330589 -108339 1.64839e+06
436 1 2.44178 7.09086 -0.350511 -97450.3 1.65762e+06
437 1 4.52357 5.82231 -0.341303 -107760 1.65474e+06
438 1 3.85652 7.11159 -0.318788 -94656.1 1.65229e+06
580 1 2.41577 9.58227 -0.275171 -86168.5 1.64669e+06
582 1 3.80839 9.51971 -0.351708 -85341.4 1.67203e+06
290 1 -0.295277 4.59431 -0.337468 -102262 1.61636e+06
433 1 0.386995 5.79934 -0.479005 -99264.5 1.62088e+06
578 1 -0.328866 9.53907 -0.206641 -79587.3 1.64421e+06
434 1 -0.278146 7.03952 -0.404275 -115402 1.63267e+06
581 1 4.52899 8.33793 -0.425164 -70097.1 1.67208e+06
723 1 1.76061 10.8063 -0.206868 -82145.1 1.65976e+06
721 1 0.3457 10.7753 -0.139052 -78905.5 1.66409e+06
4404 1 137.162 73.7538 -0.647043 159924 1.58243e+06
444 1 10.7959 7.0515 -0.616874 -102361 1.62016e+06
4403 1 137.873 72.5379 -0.598761 137173 1.58461e+06
583 1 5.91653 8.26721 -0.486419 -74790.1 1.65286e+06
296 1 6.58861 4.57833 -0.724396 -89967.7 1.65444e+06
584 1 6.581 9.54255 -0.554835 -78106.5 1.64642e+06
586 1 8.00672 9.50203 -0.443144 -71697.9 1.63417e+06
440 1 6.63527 7.05612 -0.442048 -86415.4 1.66824e+06
439 1 5.93313 5.83048 -0.599505 -106450 1.6636e+06
298 1 8.00085 4.52689 -0.812369 -85487.2 1.6461e+06
442 1 8.03056 7.05153 -0.528615 -86004.9 1.64926e+06
441 1 8.6582 5.79553 -0.661411 -83552.5 1.65977e+06
304 1 14.9651 4.51588 -0.572638 -92968.7 1.57869e+06
592 1 15.0296 9.51213 -0.545411 -118830 1.59128e+06
591 1 14.3164 8.27062 -0.6032 -97415.7 1.5967e+06
594 1 16.3723 9.49708 -0.367489 -124969 1.57641e+06
306 1 16.4054 4.52761 -0.538142 -91202.5 1.55956e+06
448 1 15.0351 7.01561 -0.689439 -79666.7 1.5877e+06
447 1 14.2901 5.7671 -0.723792 -92278.2 1.58405e+06
589 1 12.886 8.34392 -0.656332 -88699.6 1.5993e+06
302 1 12.2064 4.59739 -0.750725 -70147.1 1.58121e+06
446 1 12.186 7.07781 -0.683626 -102381 1.58145e+06
445 1 12.8884 5.83164 -0.813799 -99156 1.57482e+06
590 1 12.1843 9.55416 -0.580738 -100701 1.6173e+06
449 1 17.0491 5.7557 -0.392264 -60549.8 1.56483e+06
593 1 17.0992 8.27223 -0.387211 -101513 1.56773e+06
450 1 16.4154 7.03877 -0.407044 -73674.9 1.57471e+06
455 1 22.594 5.77183 0.125518 -105958 1.55247e+06
595 1 18.4847 8.27546 -0.346797 -110178 1.57397e+06
596 1 19.1541 9.46989 -0.240391 -80609.2 1.57878e+06
407 1 122.587 3.29965 -0.344003 -116983 1.59338e+06
598 1 20.5058 9.5123 -0.0634278 -92971.4 1.56222e+06
741 1 21.1914 10.7297 -0.182302 -83869.2 1.56047e+06
599 1 22.5668 8.22221 -0.0715365 -107539 1.55498e+06
597 1 21.1693 8.28962 -0.0155094 -103187 1.5602e+06
456 1 23.2542 6.99862 0.13622 -107074 1.54816e+06
452 1 19.1114 7.04497 -0.266336 -105106 1.56595e+06
454 1 20.5133 7.05861 -0.0493803 -112939 1.56254e+06
308 1 19.126 4.57816 -0.0672493 -94240.8 1.57969e+06
310 1 20.5546 4.57203 0.0323843 -98073.3 1.56944e+06
453 1 21.2059 5.83368 0.132825 -103975 1.56011e+06
451 1 18.4107 5.80386 -0.321826 -69198.9 1.58101e+06
4260 1 137.19 71.2804 -0.526396 130019 1.58404e+06
4405 1 139.281 72.4913 -0.495084 142476 1.59717e+06
4259 1 137.859 70.0552 -0.478891 137902 1.58713e+06
4262 1 139.942 71.2379 -0.44955 135354 1.60595e+06
4264 1 141.352 71.2453 -0.209381 141104 1.59195e+06
139 1 143.494 -1.5876 -0.457264 -90266.8 1.6518e+06
477 1 46.2188 5.76042 -0.209084 -50439.9 1.4007e+06
3654 1 54.05 61.1792 -0.270392 -803427 262717
480 1 48.2482 6.99383 -0.0267646 -35902.3 1.403e+06
479 1 47.6251 5.77064 -0.141344 -50270.8 1.39863e+06
336 1 48.2498 4.53916 -0.208377 -34898.5 1.40703e+06
619 1 43.4604 8.17232 0.031115 -66999.6 1.4207e+06
476 1 44.1743 6.98293 -0.149501 -77221.3 1.42474e+06
334 1 45.5159 4.46509 -0.278497 -70928.1 1.39509e+06
478 1 45.6066 6.98243 -0.1414 -71092.9 1.40513e+06
765 1 46.1662 10.7246 0.028374 -61734.6 1.42883e+06
332 1 44.1379 4.46694 -0.211843 -73190.2 1.41839e+06
622 1 45.5299 9.48866 -0.0193005 -70634 1.4205e+06
620 1 44.1248 9.4319 0.111374 -70202.2 1.42555e+06
141 1 146.149 -1.57992 -0.569228 -100168 1.6246e+06
3358 1 45.6836 56.4243 -0.15302 14139.8 1.9301e+06
3606 1 3.89119 61.3648 -0.886212 130597 1.62193e+06
3601 1 0.408387 60.1182 -0.603843 110570 1.6049e+06
338 1 49.6797 4.5238 -0.194273 -31001.8 1.42786e+06
3572 1 119.121 58.9119 -0.257329 135067 1.66619e+06
3460 1 2.48625 58.8944 -0.642248 136177 1.60946e+06
3694 1 107.971 61.2859 -0.0178996 270004 1.78667e+06
3603 1 1.80956 60.0804 -0.781752 111053 1.61513e+06
3704 1 119.094 61.3498 -0.35064 151892 1.6839e+06
3461 1 4.60676 57.6395 -0.644475 157721 1.65066e+06
3318 1 3.87208 56.3858 -0.581798 131919 1.65409e+06
3829 1 118.349 62.5323 -0.377916 198877 1.68582e+06
3316 1 2.48108 56.4147 -0.640803 133079 1.62406e+06
3695 1 110.057 60.0453 -0.30202 198262 1.77928e+06
3459 1 1.80075 57.6551 -0.611129 106018 1.6139e+06
3731 1 147.604 60.1374 -0.367318 130991 1.6097e+06
3706 1 120.465 61.3618 -0.0931382 157295 1.65469e+06
3732 1 148.3 61.3875 -0.35829 123775 1.61545e+06
4406 1 139.892 73.7644 -0.409916 145729 1.58833e+06
3457 1 0.419507 57.6713 -0.447158 106445 1.60406e+06
1 1 0.356293 -1.55899 -0.383185 -81154.4 1.60703e+06
3604 1 2.53445 61.3351 -0.731629 126064 1.61646e+06
3605 1 4.562 60.1168 -0.738609 126381 1.63139e+06
3860 1 -0.24918 66.2857 -0.457692 120924 1.61165e+06
3462 1 3.91491 58.8785 -0.71774 138185 1.64293e+06
4407 1 142.028 72.5048 -0.338079 141432 1.58092e+06
4535 1 141.967 75.0248 -0.326086 150357 1.56902e+06
4408 1 141.344 73.7862 -0.414898 145486 1.58328e+06
4263 1 142.026 69.9907 -0.170203 149891 1.61185e+06
4261 1 139.266 70.0142 -0.498077 135475 1.59724e+06
4527 1 133.653 74.9508 -0.842408 176623 1.58697e+06
4402 1 135.771 73.7575 -0.634361 158896 1.60089e+06
4529 1 135.069 74.9825 -0.788517 176180 1.59716e+06
4258 1 135.802 71.3044 -0.599471 126016 1.58883e+06
4257 1 135.108 70.0884 -0.375542 138941 1.57993e+06
3458 1 -0.261596 58.89 -0.482936 107945 1.60378e+06
4400 1 133.012 73.7305 -0.656884 159957 1.60091e+06
3733 1 0.426534 62.6075 -0.507051 113264 1.62977e+06
3602 1 -0.291669 61.3686 -0.433048 128420 1.61176e+06
4256 1 133.039 71.2488 -0.517361 141016 1.60585e+06
3312 1 148.279 53.9444 -0.378195 73403.8 1.62998e+06
3734 1 -0.276816 63.826 -0.378096 130379 1.63519e+06
4397 1 130.921 72.5261 -0.410766 151005 1.61504e+06
3992 1 2.55505 68.7083 -0.590554 124661 1.61721e+06
4525 1 130.932 74.9487 -0.385225 190827 1.62254e+06
4399 1 133.705 72.5209 -0.591525 139907 1.60456e+06
4401 1 135.098 72.5034 -0.622476 139513 1.58905e+06
3314 1 -0.26621 56.4246 -0.544296 101831 1.6109e+06
3859 1 0.41113 65.0381 -0.509555 127502 1.62252e+06
3502 1 45.6617 58.9415 0.100625 149602 1.99974e+06
3354 1 41.4314 56.371 0.0515355 73704.5 1.87404e+06
4251 1 129.515 70.0785 -0.182671 116271 1.58539e+06
3573 1 121.217 57.678 -0.299802 111553 1.67681e+06
4395 1 129.516 72.4935 -0.181034 142937 1.60241e+06
3428 1 119.105 56.4248 -0.375922 78014.2 1.65681e+06
402 1 116.331 4.51105 -0.187804 -99937.3 1.50535e+06
400 1 114.941 4.52822 -0.301044 -103154 1.4965e+06
51 1 51.7223 -1.61828 -0.278605 -14246.4 1.42067e+06
3574 1 120.51 58.8766 -0.254958 136618 1.66574e+06
546 1 116.379 7.00731 -0.159363 -84475.8 1.51993e+06
4250 1 127.391 71.2422 0.0987941 141980 1.61283e+06
196 1 52.3768 2.02471 -0.142752 -9597.27 1.43795e+06
3138 1 116.273 51.5526 -0.337798 13484.6 1.69777e+06
545 1 117.012 5.72032 -0.149579 -103485 1.49897e+06
687 1 114.284 8.23862 -0.331258 -105836 1.47728e+06
279 1 139.285 0.891336 -0.242861 -83561.8 1.62977e+06
3991 1 1.82481 67.4984 -0.574706 131230 1.62058e+06
3862 1 2.54219 66.2506 -0.612447 142695 1.6189e+06
3861 1 1.77882 65.0048 -0.632008 119646 1.61596e+06
3989 1 0.427718 67.514 -0.481651 124267 1.60968e+06
3994 1 3.94872 68.698 -0.532825 132611 1.61028e+06
140 1 144.151 -0.342216 -0.430084 -101999 1.6536e+06
3349 1 37.9288 55.1459 -0.0723875 66587.2 1.78687e+06
3575 1 122.604 57.6595 -0.137863 101098 1.65932e+06
4396 1 128.829 73.7407 -0.0788886 164920 1.60802e+06
4523 1 129.566 74.9489 -0.0747466 186087 1.60685e+06
410 1 124.678 4.51505 -0.14037 -119359 1.58889e+06
3430 1 120.527 56.4514 -0.373145 72997.6 1.66926e+06
4252 1 128.805 71.2763 -0.0921599 143465 1.59114e+06
555 1 126.792 5.75459 -0.11025 -115357 1.56612e+06
414 1 128.895 4.52291 -0.181209 -126217 1.58127e+06
412 1 127.492 4.54505 -0.203448 -132802 1.56114e+06
704 1 131.611 9.49993 -0.133491 -128342 1.60948e+06
847 1 130.92 10.7248 -0.252138 -113235 1.60655e+06
561 1 133.725 5.80908 -0.248333 -100974 1.58868e+06
708 1 135.796 9.47305 -0.450219 -120515 1.59895e+06
707 1 135.066 8.30298 -0.501158 -122119 1.61739e+06
706 1 133.03 9.56386 -0.360383 -119981 1.62966e+06
705 1 133.636 8.28164 -0.50017 -122454 1.62085e+06
418 1 133.037 4.58535 -0.291481 -115603 1.58415e+06
562 1 133.041 7.01483 -0.340955 -92417.1 1.6058e+06
563 1 135.12 5.83721 -0.303665 -101853 1.60614e+06
420 1 135.716 4.59466 -0.34183 -87782.1 1.61979e+06
564 1 135.797 7.06976 -0.456304 -108931 1.60889e+06
560 1 131.639 7.00431 -0.271127 -92223.8 1.61843e+06
712 1 139.938 9.52112 -0.37335 -103408 1.63765e+06
714 1 141.315 9.49024 -0.371859 -102431 1.63966e+06
857 1 141.985 10.7321 -0.432141 -109193 1.62675e+06
422 1 137.166 4.59521 -0.50008 -78572.6 1.64538e+06
570 1 141.35 7.04741 -0.265957 -110987 1.64616e+06
713 1 142.025 8.25503 -0.455665 -80861.7 1.65459e+06
567 1 139.274 5.82167 -0.446723 -89127.9 1.63008e+06
565 1 137.858 5.79686 -0.490336 -92806.2 1.63679e+06
569 1 142.096 5.79443 -0.281026 -114833 1.6472e+06
424 1 139.933 4.55441 -0.337938 -94445.3 1.6201e+06
426 1 141.406 4.57161 -0.311483 -93371.1 1.64737e+06
568 1 139.897 7.06756 -0.31283 -102357 1.63575e+06
711 1 139.237 8.29779 -0.341055 -110005 1.63044e+06
566 1 137.186 7.00892 -0.475423 -112351 1.61623e+06
710 1 137.182 9.47419 -0.525436 -117108 1.6094e+06
709 1 137.864 8.25736 -0.489616 -109429 1.61025e+06
716 1 144.081 9.49689 -0.407047 -98472 1.64188e+06
430 1 145.529 4.56928 -0.489544 -107741 1.6338e+06
717 1 146.22 8.30149 -0.481574 -109008 1.60792e+06
574 1 145.546 7.01705 -0.507611 -109933 1.61658e+06
718 1 145.489 9.54591 -0.416603 -98248.1 1.61112e+06
573 1 146.217 5.78236 -0.490125 -114358 1.63031e+06
576 1 148.325 7.0241 -0.362719 -121391 1.63348e+06
720 1 148.276 9.56842 -0.285825 -84331.5 1.63121e+06
575 1 147.615 5.80902 -0.511227 -113935 1.6351e+06
719 1 147.605 8.30594 -0.333688 -101274 1.62997e+06
432 1 148.283 4.56966 -0.439284 -96341 1.62854e+06
715 1 143.427 8.28645 -0.444924 -100472 1.65548e+06
572 1 144.14 7.04767 -0.410162 -102240 1.65307e+06
861 1 146.187 10.783 -0.330025 -72697.9 1.61789e+06
859 1 143.364 10.7139 -0.359134 -105610 1.62233e+06
571 1 143.48 5.79898 -0.186222 -105427 1.64997e+06
428 1 144.163 4.55072 -0.234629 -103606 1.64935e+06
867 1 1.75745 13.2492 -0.217295 -75020.4 1.68468e+06
865 1 0.375868 13.2748 -0.0952097 -74906.2 1.65147e+06
3408 1 98.2377 56.2282 0.0112077 -157426 1.91464e+06
866 1 -0.312594 14.4767 -0.342346 -86351.4 1.65283e+06
722 1 -0.30612 12.0402 -0.184806 -71697.5 1.65779e+06
725 1 4.51303 10.7677 -0.386457 -93297.4 1.66518e+06
1009 1 0.376993 15.7003 -0.387698 -134925 1.63039e+06
870 1 3.81824 14.477 -0.124988 -127686 1.6468e+06
1010 1 -0.272572 16.9989 -0.477325 -140658 1.63292e+06
726 1 3.83038 11.982 -0.192243 -86232.1 1.66213e+06
869 1 4.50851 13.234 -0.158927 -132055 1.64113e+06
868 1 2.43254 14.4862 -0.263777 -116434 1.67039e+06
1013 1 4.4901 15.6972 -0.19895 -111513 1.64326e+06
1014 1 3.89066 16.9309 -0.400486 -128157 1.65103e+06
1011 1 1.78875 15.6751 -0.470584 -129484 1.65566e+06
1012 1 2.47128 16.9479 -0.55324 -126871 1.6545e+06
729 1 8.6877 10.7408 -0.456078 -115970 1.61813e+06
731 1 10.099 10.7241 -0.417564 -118403 1.60576e+06
727 1 5.92425 10.8009 -0.492662 -89195.7 1.65426e+06
1018 1 8.01208 16.8858 -0.207092 -113838 1.63381e+06
1017 1 8.68641 15.6796 -0.154935 -127259 1.62268e+06
732 1 10.8072 11.948 -0.368458 -105811 1.61167e+06
728 1 6.58007 12.0075 -0.346862 -149864 1.63716e+06
730 1 8.01853 11.9851 -0.297212 -139789 1.62082e+06
871 1 5.89138 13.2671 -0.276486 -135968 1.63601e+06
1015 1 5.858 15.7177 -0.17404 -113087 1.66267e+06
872 1 6.57147 14.4929 -0.226818 -129286 1.65583e+06
874 1 8.00142 14.4416 -0.265682 -121083 1.62536e+06
873 1 8.72659 13.2096 -0.374478 -127362 1.62916e+06
1016 1 6.61904 16.8599 -0.277696 -110114 1.64687e+06
875 1 10.1378 13.1716 -0.301618 -126928 1.61248e+06
1019 1 10.0971 15.6531 -0.036867 -123662 1.62785e+06
1020 1 10.7937 16.9223 0.0423359 -118550 1.63235e+06
876 1 10.7725 14.416 -0.076027 -117292 1.61942e+06
735 1 14.2916 10.7531 -0.369323 -121347 1.59305e+06
737 1 17.0554 10.7228 -0.373902 -93318.6 1.57356e+06
1024 1 14.9927 16.8986 -0.326267 -120807 1.61728e+06
882 1 16.3826 14.4251 -0.294519 -112436 1.60675e+06
733 1 12.8899 10.7875 -0.484779 -124147 1.61118e+06
736 1 14.9721 11.9438 -0.426408 -117758 1.59958e+06
880 1 14.9913 14.4381 -0.2507 -107413 1.61468e+06
738 1 16.3786 11.9499 -0.368797 -120565 1.5821e+06
283 1 143.474 0.89616 -0.283201 -92001.1 1.66101e+06
879 1 14.31 13.2175 -0.323454 -120040 1.60516e+06
734 1 12.2392 12.0106 -0.35732 -105601 1.60537e+06
1022 1 12.235 16.9141 0.0543843 -123058 1.62953e+06
4386 1 119.13 73.743 0.108661 192352 1.71763e+06
1021 1 12.9262 15.684 -0.0522339 -135569 1.61836e+06
878 1 12.2058 14.4506 -0.0511018 -114281 1.60083e+06
877 1 12.911 13.2418 -0.16144 -123742 1.60608e+06
1023 1 14.311 15.672 -0.300244 -127241 1.61678e+06
881 1 17.0636 13.1678 -0.300678 -120619 1.58628e+06
739 1 18.4372 10.7193 -0.3728 -98359.2 1.57968e+06
743 1 22.5684 10.7365 -0.0486999 -87500.1 1.57467e+06
883 1 18.4426 13.2075 -0.315823 -124940 1.56229e+06
4385 1 118.415 72.4967 0.0632067 168830 1.70905e+06
4387 1 121.158 72.4837 0.232351 157129 1.67712e+06
285 1 146.245 0.892289 -0.496149 -94325.5 1.63246e+06
3876 1 16.4623 66.3056 -0.278275 175960 1.6223e+06
3872 1 12.2628 66.2875 -0.575036 170227 1.60557e+06
142 1 145.509 -0.32689 -0.453686 -103790 1.62598e+06
143 1 147.552 -1.61502 -0.593325 -92389.9 1.6007e+06
443 1 10.093 5.78813 -0.642524 -82703.9 1.63746e+06
300 1 10.7807 4.60184 -0.68369 -79578.7 1.6245e+06
3736 1 2.49159 63.7776 -0.611361 103542 1.5988e+06
4243 1 121.211 70.0044 0.036228 152429 1.66897e+06
3168 1 148.249 51.4434 -0.380434 61445.6 1.6561e+06
3284 1 119.134 53.9811 -0.434134 55303.2 1.68838e+06
3735 1 1.82874 62.5658 -0.645904 114790 1.60643e+06
3140 1 119.132 51.5057 -0.314169 15888.6 1.68823e+06
3139 1 118.409 50.2958 -0.327794 3372.4 1.68603e+06
3705 1 121.176 60.1519 -0.114111 127645 1.6531e+06
3283 1 118.449 52.7526 -0.403605 33152.7 1.68438e+06
4398 1 131.603 73.7572 -0.56831 160363 1.61677e+06
3279 1 114.218 52.7892 -0.210584 327.711 1.71283e+06
3286 1 120.52 54.004 -0.305632 54399.3 1.65743e+06
3423 1 114.23 55.2568 -0.20333 30133.5 1.71869e+06
3425 1 117.03 55.2023 -0.406392 60289.7 1.70025e+06
3281 1 117.019 52.7743 -0.374619 38891.3 1.70017e+06
3137 1 116.995 50.2983 -0.334454 3722.5 1.69486e+06
3738 1 3.89277 63.8193 -0.679204 102398 1.59741e+06
3142 1 120.523 51.524 -0.315796 14618.7 1.6647e+06
3282 1 116.354 54.0089 -0.325374 33713.6 1.69263e+06
3285 1 121.201 52.7556 -0.222962 62724.8 1.66652e+06
3136 1 114.882 51.5466 -0.253013 12091.6 1.70548e+06
3429 1 121.15 55.2464 -0.37603 65033.8 1.66827e+06
3280 1 114.937 54.0537 -0.252044 34125.9 1.71616e+06
4254 1 131.623 71.2308 -0.399447 142678 1.60819e+06
544 1 114.976 7.03453 -0.234837 -82917.2 1.49967e+06
3135 1 114.26 50.2793 -0.221172 -25951.7 1.6954e+06
3737 1 4.5835 62.5889 -0.815706 141621 1.61601e+06
827 1 110.189 10.6925 -0.0812527 -97403.7 1.45261e+06
3864 1 3.94549 66.2583 -0.627755 136850 1.61783e+06
3863 1 4.61315 65.042 -0.579901 124029 1.60986e+06
408 1 123.272 4.53455 -0.196924 -113095 1.59618e+06
689 1 117.09 8.23937 -0.132685 -94302.5 1.53894e+06
686 1 112.241 9.46215 -0.0590239 -92315.9 1.46843e+06
3028 1 2.49018 51.4392 -0.505173 58799 1.63387e+06
3027 1 1.73586 50.1689 -0.473099 70160.9 1.63648e+06
3030 1 3.85939 51.4364 -0.474938 53924.6 1.62838e+06
3171 1 1.79227 52.7013 -0.53379 71448.8 1.63474e+06
691 1 118.469 8.22979 -0.139369 -97829.5 1.55131e+06
3217 1 50.405 52.6407 0.262472 -202921 1.63108e+06
4244 1 120.475 71.2388 0.141114 144566 1.67449e+06
845 1 129.557 10.688 -0.249908 -110798 1.60301e+06
4241 1 118.361 70.0104 -0.010995 157651 1.68673e+06
2851 1 118.419 45.3072 -0.40436 -30574.1 1.69664e+06
554 1 124.653 6.94318 -0.0177281 -115376 1.58753e+06
1025 1 17.0782 15.6894 -0.281581 -118964 1.60081e+06
1026 1 16.3474 16.9079 -0.276173 -123805 1.60321e+06
2708 1 119.116 44.0537 -0.328628 -42068 1.69932e+06
2704 1 114.937 44.0766 -0.106374 -56164.5 1.6686e+06
4236 1 112.041 71.2276 -0.053183 169485 1.77664e+06
1027 1 18.5283 15.6803 -0.311525 -127303 1.57451e+06
744 1 23.2845 11.9283 -0.072851 -95856 1.58873e+06
4240 1 116.263 71.2972 -0.0587559 164589 1.73562e+06
2850 1 116.345 46.5872 -0.344611 -34734.4 1.69122e+06
2847 1 114.275 45.3086 -0.0768903 -69774.7 1.66841e+06
3359 1 47.7468 55.161 -0.207462 -131956 1.87782e+06
3993 1 4.63191 67.491 -0.720533 127087 1.61103e+06
4382 1 114.873 73.6931 0.0887808 188104 1.76934e+06
3865 1 6.00535 64.9856 -0.492011 125218 1.61466e+06
3740 1 6.65985 63.7324 -0.467117 151723 1.63414e+06
404 1 119.09 4.53667 -0.179878 -106628 1.5496e+06
4383 1 116.995 72.5045 0.116248 171618 1.73425e+06
406 1 120.493 4.60069 -0.34656 -104612 1.576e+06
4511 1 116.955 74.9393 0.181577 216112 1.73868e+06
4384 1 116.327 73.6967 0.230864 188022 1.73449e+06
4239 1 116.941 70.0177 -0.114596 168390 1.71496e+06
1070 1 62.2211 16.8137 -0.00136918 8223.29 1.27733e+06
551 1 122.588 5.79155 -0.171179 -117634 1.5933e+06
1069 1 62.8555 15.5591 0.0474545 33326.2 1.2886e+06
4234 1 110.642 71.1997 -0.0596164 168605 1.81341e+06
3169 1 0.354414 52.6921 -0.535194 70693.6 1.63387e+06
3026 1 -0.331226 51.4407 -0.512851 65471.8 1.6418e+06
4232 1 107.935 71.1819 -0.084042 168254 1.86901e+06
3170 1 -0.308873 53.9627 -0.500071 81691.2 1.62992e+06
4041 1 54.7072 67.7028 -0.238406 272071 -764932
4233 1 109.972 69.9408 -0.0788928 201916 1.81498e+06
2994 1 116.327 49.0719 -0.552487 -26873.5 1.69473e+06
549 1 121.227 5.80327 -0.392524 -120679 1.59094e+06
3218 1 49.7849 53.8831 0.0375184 -227417 1.71951e+06
4181 1 56.0685 70.3157 -0.481536 -444020 630858
4184 1 58.2077 71.465 -0.0704141 1.08443e+06 144158
4182 1 56.7838 71.4919 -0.234239 1.13994e+06 142397
4183 1 58.8606 70.2014 -0.160691 -887085 348946
547 1 118.399 5.74373 -0.238739 -111632 1.55656e+06
2884 1 2.4408 48.9516 -0.555929 47787.2 1.64405e+06
2886 1 3.80042 49.0056 -0.468032 53799.6 1.62999e+06
4164 1 37.3067 71.2887 -0.169305 225136 1.80463e+06
2579 1 135.033 40.3803 -0.610945 -5583.87 1.63513e+06
2436 1 135.744 39.1582 -0.531541 -12759.3 1.623e+06
2276 1 119.119 36.6519 -0.345221 -85186.2 1.62033e+06
2992 1 114.946 49.0654 -0.413214 -28544.3 1.69085e+06
850 1 133.069 12.0046 -0.365986 -106156 1.63968e+06
848 1 131.648 11.9457 -0.390303 -108184 1.60719e+06
1135 1 130.945 15.6318 -0.0682402 -155594 1.59955e+06
992 1 131.635 14.4465 -0.18251 -106928 1.6007e+06
1136 1 131.56 16.9169 -0.051234 -142998 1.59175e+06
991 1 130.933 13.2077 -0.319829 -124139 1.61174e+06
1138 1 133.003 16.9228 -0.099391 -141715 1.60211e+06
996 1 135.792 14.4441 -0.0358107 -100488 1.61384e+06
1139 1 135.138 15.7142 0.0787908 -108199 1.61798e+06
851 1 135.136 10.7289 -0.374374 -105286 1.60301e+06
1137 1 133.719 15.7182 -0.0829476 -117509 1.61951e+06
995 1 135.132 13.2599 -0.139833 -118934 1.60382e+06
993 1 133.738 13.2619 -0.221793 -117591 1.62134e+06
994 1 133.038 14.4672 -0.142531 -111497 1.61756e+06
849 1 133.764 10.7558 -0.342252 -108173 1.64433e+06
852 1 135.775 11.9635 -0.339865 -125880 1.59926e+06