ITEM: TIMESTEP
60000
ITEM: NUMBER OF ATOMS
8948
ITEM: BOX BOUNDS pp pp ff
-9.8617854173945363e-01 1.4896217854173395e+02
-2.2231699999999996e+00 1.5334416999999999e+02
-1.0000000000000000e+02 1.0000000000000000e+02
ITEM: ATOMS id type x y z f_3[1] f_3[2]
5 1 4.59245 -1.6398 -0.427369 -154340 1.60114e+06
293 1 4.59223 3.3751 -0.323174 -133565 1.61951e+06
6 1 3.94023 -0.395827 -0.478388 -146468 1.60306e+06
291 1 1.82375 3.30382 -0.588255 -133521 1.62168e+06
4 1 2.54151 -0.37559 -0.498874 -143435 1.60973e+06
150 1 3.92343 2.12148 -0.403632 -153828 1.6009e+06
149 1 4.6459 0.818584 -0.367102 -145550 1.6024e+06
289 1 0.431214 3.31629 -0.736536 -135858 1.63058e+06
146 1 -0.230055 2.07845 -0.792691 -132889 1.62638e+06
3 1 1.84802 -1.65569 -0.605343 -154428 1.60041e+06
2 1 -0.191728 -0.368324 -0.780425 -160196 1.60895e+06
145 1 0.485376 0.899609 -0.72591 -133099 1.60632e+06
147 1 1.85402 0.896172 -0.624856 -149249 1.61588e+06
148 1 2.5645 2.11594 -0.485468 -142299 1.61569e+06
1 1 0.471713 -1.60459 -0.864243 -152835 1.61124e+06
153 1 8.76794 0.860272 -0.424028 -119614 1.60063e+06
10 1 8.06904 -0.327798 -0.309931 -157263 1.60062e+06
9 1 8.76025 -1.58055 -0.344417 -139046 1.60472e+06
8 1 6.66829 -0.314589 -0.309061 -155619 1.58367e+06
11 1 10.1453 -1.6112 -0.378744 -120859 1.61175e+06
12 1 10.8201 -0.341667 -0.334886 -130376 1.62179e+06
299 1 10.1468 3.39021 -0.352328 -153038 1.60356e+06
151 1 6.01418 0.921568 -0.248842 -150376 1.58914e+06
155 1 10.1702 0.863231 -0.384521 -119192 1.62237e+06
7 1 6.01038 -1.65005 -0.246223 -155574 1.58882e+06
152 1 6.68893 2.11541 -0.338442 -138843 1.59836e+06
295 1 6.03432 3.36044 -0.250255 -130624 1.60617e+06
154 1 8.13795 2.09528 -0.43746 -136314 1.59556e+06
297 1 8.77749 3.34846 -0.362358 -153867 1.58923e+06
156 1 10.7909 2.11958 -0.292286 -119989 1.61545e+06
16 1 15.011 -0.408429 0.014852 -126499 1.62658e+06
3505 1 50.3779 57.5244 0.00740738 -71060.7 2.00126e+06
13 1 12.8887 -1.62762 -0.577307 -130528 1.60776e+06
15 1 14.2707 -1.62988 -0.244747 -132617 1.60341e+06
3645 1 46.2654 60.0967 -0.0201153 227259 2.02546e+06
301 1 12.8336 3.37522 -0.0877185 -139848 1.61141e+06
158 1 12.183 2.12159 -0.152777 -119605 1.61394e+06
1038 1 28.8799 16.897 -0.16214 -94340.1 1.5291e+06
739 1 18.4273 10.7503 0.0818226 -154962 1.58989e+06
690 1 116.399 9.49112 -0.0190949 -49075.3 1.53642e+06
160 1 14.9559 2.0828 0.120941 -147656 1.60088e+06
159 1 14.301 0.851399 0.0215646 -120878 1.62036e+06
157 1 12.8663 0.88499 -0.129305 -120314 1.60777e+06
14 1 12.2351 -0.396043 -0.416464 -134830 1.61108e+06
303 1 14.2855 3.32562 0.0658689 -144676 1.58903e+06
4323 1 54.6879 72.4864 0.155192 532816 1.04808e+06
3648 1 48.357 61.3154 -0.123783 246670 2.2426e+06
4179 1 54.6937 70.0358 -0.00790013 -211088 933942
627 1 51.7864 8.21715 -0.0671065 -35546.3 1.35495e+06
3647 1 47.7148 60.0792 -0.125298 234148 2.16487e+06
4461 1 47.7105 74.8635 -0.161695 53132.2 1.74204e+06
609 1 33.7094 8.17201 0.117112 -63417.4 1.5009e+06
3769 1 37.8944 62.519 -0.173019 264524 1.76756e+06
3638 1 37.202 61.2956 -0.110962 222125 1.7434e+06
4268 1 145.435 71.3014 -0.270352 143586 1.60971e+06
4412 1 145.451 73.7926 -0.505921 151562 1.60378e+06
3767 1 35.1494 62.5873 -0.166967 207350 1.73668e+06
4411 1 146.153 72.5326 -0.315065 143667 1.60506e+06
4267 1 146.108 70.0642 -0.148271 144508 1.6122e+06
3491 1 35.1076 57.6197 -0.126759 109382 1.70585e+06
4537 1 143.371 74.9478 -0.784619 160211 1.60513e+06
4410 1 144.051 73.7302 -0.661223 150663 1.58627e+06
3636 1 35.7995 61.3235 -0.162399 220298 1.73501e+06
3635 1 35.134 60.0916 -0.137717 167443 1.71326e+06
4539 1 146.151 75.0122 -0.592334 130550 1.60038e+06
4541 1 147.552 74.9947 -0.322093 128896 1.62089e+06
42 1 41.3529 -0.447289 -0.205442 -39302.8 1.45993e+06
181 1 37.8809 0.745637 -0.240875 -79543 1.47148e+06
40 1 39.9481 -0.43489 -0.419809 -41984.8 1.47564e+06
41 1 42.0191 -1.66119 -0.152986 -48824.5 1.4551e+06
185 1 42.0202 0.78295 -0.40655 -36100.7 1.4609e+06
325 1 37.8677 3.28096 -0.454967 -83255 1.47153e+06
186 1 41.2929 2.02993 -0.306627 -52912.9 1.43817e+06
39 1 39.2874 -1.66909 -0.218391 -48038.4 1.47705e+06
183 1 39.2607 0.761743 -0.295596 -78796.2 1.4734e+06
37 1 37.8888 -1.65986 -0.239286 -51842.3 1.47883e+06
38 1 37.2229 -0.462167 -0.30097 -66991.7 1.47227e+06
327 1 39.2643 3.26917 -0.457861 -96819 1.47676e+06
184 1 39.9001 1.99176 -0.329899 -54230.8 1.4785e+06
329 1 41.9929 3.29569 -0.416001 -47045.4 1.44574e+06
182 1 37.2247 2.02737 -0.35026 -111783 1.46708e+06
45 1 46.194 -1.64696 -0.346146 -8602.09 1.41047e+06
46 1 45.5282 -0.395904 -0.390364 -58306.4 1.39387e+06
331 1 43.4304 3.286 -0.617547 -48322.4 1.42312e+06
188 1 44.1056 2.01942 -0.610803 -10263.3 1.44178e+06
190 1 45.531 2.05319 -0.624583 -12771.2 1.40639e+06
187 1 43.3904 0.851225 -0.403672 -34432.7 1.45182e+06
43 1 43.4064 -1.62008 -0.219171 -55664.5 1.43674e+06
44 1 44.1293 -0.384232 -0.272238 -44742.9 1.44564e+06
333 1 46.1766 3.27631 -0.664567 -26238.3 1.40944e+06
191 1 47.6668 0.804748 -0.69162 -52444.1 1.37144e+06
189 1 46.2213 0.832138 -0.641307 -44431.3 1.38847e+06
192 1 48.2983 2.03903 -0.54569 -26895.8 1.36673e+06
48 1 48.3327 -0.418296 -0.663058 -42495 1.38118e+06
335 1 47.5994 3.33865 -0.637865 -40500.8 1.37407e+06
47 1 47.6148 -1.64214 -0.472693 -27126.3 1.39052e+06
51 1 51.7306 -1.60909 -0.0841876 -25561.1 1.37252e+06
50 1 49.7425 -0.381458 -0.509826 -48875.9 1.36009e+06
49 1 50.3799 -1.60062 -0.297403 -31746.8 1.36635e+06
339 1 51.7488 3.3252 -0.18568 -6466.92 1.35813e+06
194 1 49.6862 2.07568 -0.361378 -36973.5 1.36695e+06
193 1 50.4139 0.868198 -0.423974 -40413.1 1.37016e+06
195 1 51.8029 0.872202 -0.294942 -30811.7 1.35074e+06
196 1 52.4571 2.11434 -0.139658 -14180.9 1.366e+06
337 1 50.3593 3.31814 -0.306812 -14494.9 1.38083e+06
4266 1 144.037 71.2818 -0.322598 145622 1.6169e+06
4265 1 143.333 70.0537 -0.286474 161347 1.63441e+06
4414 1 148.226 73.7224 -0.119548 140286 1.6217e+06
4269 1 147.506 70.0492 -0.0259902 145261 1.63554e+06
4262 1 139.884 71.2404 -0.572278 182879 1.62043e+06
4531 1 137.746 74.9932 -0.747872 171742 1.60071e+06
4406 1 139.812 73.7507 -0.815675 181027 1.62182e+06
4535 1 141.974 74.9364 -0.823146 160844 1.61503e+06
4408 1 141.207 73.6861 -0.797728 177140 1.62229e+06
3492 1 35.7905 58.8581 -0.166777 138150 1.70838e+06
4261 1 139.178 69.9937 -0.486738 199847 1.62053e+06
4317 1 47.7203 72.4547 -0.242681 56433.3 1.84338e+06
4318 1 48.3822 73.6325 -0.208672 52778.1 1.77954e+06
4404 1 137.083 73.7493 -0.803801 179238 1.60247e+06
4459 1 46.3184 74.8688 -0.272146 62709.5 1.86967e+06
770 1 49.7897 11.9196 -0.0912937 -28077.8 1.3711e+06
467 1 35.1084 5.72314 -0.0495823 -77074.9 1.48363e+06
4401 1 135.013 72.5331 -0.727326 192352 1.61945e+06
1066 1 57.969 16.8156 -0.000436792 -13033.9 1.30455e+06
465 1 33.6948 5.77153 -0.0872487 -76633.6 1.50369e+06
4255 1 133.549 70.0237 -0.611874 189715 1.60298e+06
4258 1 135.664 71.2632 -0.678574 197240 1.62136e+06
468 1 35.8008 6.97671 -0.110353 -49568.3 1.49579e+06
4525 1 130.864 74.989 -0.083088 219724 1.62492e+06
115 1 118.493 -1.60278 -0.0230275 -100762 1.5116e+06
4254 1 131.529 71.3044 -0.168076 174954 1.60619e+06
270 1 128.901 2.09002 -0.0438061 -110849 1.58021e+06
3488 1 31.6626 58.956 -0.207551 147890 1.70344e+06
3631 1 30.9969 60.1538 -0.382 163128 1.69274e+06
4316 1 45.5981 73.6553 -0.316003 83059.4 1.90631e+06
3632 1 31.6769 61.3899 -0.342796 180842 1.7096e+06
405 1 121.256 3.32368 0.0496935 -110850 1.54149e+06
269 1 129.544 0.857452 -0.184773 -132297 1.5714e+06
3634 1 33.0682 61.3727 -0.335806 182048 1.71723e+06
260 1 119.184 2.09366 0.0239366 -98494 1.52375e+06
268 1 127.502 2.05742 0.0319031 -111185 1.56396e+06
114 1 116.454 -0.355901 -0.0649161 -112071 1.53179e+06
180 1 35.8412 2.00905 -0.389279 -108985 1.48608e+06
1121 1 117.101 15.6721 -0.11596 -68592.7 1.53568e+06
413 1 129.589 3.29192 -0.172616 -110546 1.58652e+06
3486 1 28.8788 58.9353 -0.293947 157172 1.70072e+06
132 1 135.767 -0.404217 -0.729709 -152740 1.5918e+06
131 1 135.142 -1.62023 -0.452854 -136707 1.60905e+06
417 1 133.718 3.31103 -0.48939 -121464 1.59203e+06
415 1 130.989 3.326 -0.224934 -119752 1.57848e+06
127 1 130.934 -1.62708 -0.320697 -137908 1.58582e+06
129 1 133.742 -1.6171 -0.320246 -145017 1.59605e+06
128 1 131.623 -0.39664 -0.268264 -131295 1.58065e+06
272 1 131.691 2.11563 -0.330028 -142694 1.57502e+06
273 1 133.685 0.857565 -0.655575 -144700 1.59944e+06
130 1 132.996 -0.361964 -0.385647 -128564 1.60192e+06
274 1 133.067 2.0633 -0.545487 -141154 1.59603e+06
271 1 130.926 0.870204 -0.180748 -138797 1.58352e+06
419 1 135.128 3.32231 -0.777354 -124787 1.60449e+06
275 1 135.091 0.831892 -0.788725 -135310 1.58547e+06
276 1 135.764 2.07617 -0.914692 -128477 1.59223e+06
281 1 142.087 0.876104 -0.925622 -131674 1.61722e+06
138 1 141.374 -0.356704 -0.931767 -138316 1.62443e+06
133 1 137.834 -1.62624 -0.942796 -159022 1.63204e+06
137 1 142.082 -1.61006 -0.942084 -152031 1.62621e+06
134 1 137.17 -0.387629 -0.930907 -153533 1.62654e+06
136 1 139.919 -0.366503 -1.04503 -144099 1.64508e+06
135 1 139.292 -1.61696 -0.865994 -152110 1.62987e+06
421 1 137.875 3.32939 -0.979824 -118603 1.64227e+06
277 1 137.839 0.840212 -1.08919 -142073 1.63943e+06
279 1 139.229 0.866817 -1.17088 -138298 1.65122e+06
278 1 137.166 2.09065 -0.989671 -123250 1.64543e+06
280 1 139.97 2.14303 -1.10615 -126460 1.64037e+06
423 1 139.243 3.34104 -0.9388 -107014 1.65912e+06
282 1 141.363 2.10783 -1.06269 -139088 1.61815e+06
425 1 141.992 3.35226 -1.07093 -148780 1.61318e+06
144 1 148.345 -0.32612 -0.831527 -150215 1.62257e+06
287 1 147.599 0.866102 -0.961795 -150639 1.61521e+06
431 1 147.593 3.3761 -0.705154 -137889 1.62624e+06
288 1 148.253 2.06407 -0.810987 -139382 1.61102e+06
139 1 143.492 -1.61467 -0.930578 -156464 1.59583e+06
141 1 146.239 -1.56477 -0.957321 -161455 1.61697e+06
140 1 144.139 -0.397469 -0.951813 -146163 1.60629e+06
283 1 143.479 0.850922 -1.00186 -133574 1.60861e+06
142 1 145.525 -0.357535 -0.900303 -139709 1.61672e+06
143 1 147.645 -1.57222 -0.848849 -157271 1.62912e+06
286 1 145.508 2.13174 -0.910612 -150859 1.63276e+06
284 1 144.126 2.09263 -1.02493 -153662 1.61567e+06
429 1 146.197 3.36742 -0.8043 -137152 1.63572e+06
427 1 143.373 3.32248 -1.06492 -152679 1.60204e+06
285 1 146.21 0.880548 -0.925153 -148297 1.63292e+06
435 1 1.79085 5.80208 -0.387845 -136846 1.6235e+06
292 1 2.52721 4.56742 -0.473691 -120812 1.61392e+06
577 1 0.435346 8.25786 -0.504996 -122423 1.63379e+06
294 1 3.92682 4.58696 -0.502304 -125179 1.63194e+06
579 1 1.80402 8.27578 -0.299904 -111993 1.64561e+06
436 1 2.45134 7.01457 -0.377826 -129295 1.63334e+06
437 1 4.59827 5.79812 -0.518095 -137694 1.63185e+06
438 1 3.85799 6.98657 -0.484704 -136400 1.63352e+06
580 1 2.57509 9.47263 -0.345117 -107607 1.63679e+06
582 1 3.93426 9.47247 -0.562652 -111051 1.63485e+06
290 1 -0.236497 4.49407 -0.522737 -134790 1.63347e+06
433 1 0.406194 5.78592 -0.406713 -134301 1.63042e+06
578 1 -0.28435 9.43429 -0.516421 -107683 1.64337e+06
434 1 -0.248342 7.0189 -0.536508 -115006 1.6341e+06
581 1 4.54214 8.22658 -0.547272 -157609 1.62236e+06
583 1 5.96583 8.20276 -0.576506 -148230 1.60874e+06
296 1 6.68786 4.57788 -0.312461 -145029 1.60697e+06
584 1 6.6775 9.48476 -0.548476 -130738 1.61875e+06
586 1 8.0507 9.48437 -0.451328 -137177 1.61219e+06
440 1 6.65595 7.01244 -0.350101 -162394 1.6033e+06
439 1 5.98511 5.78528 -0.425855 -147151 1.61394e+06
298 1 8.06101 4.57786 -0.423573 -151200 1.58481e+06
442 1 8.05532 7.0677 -0.329853 -155577 1.60368e+06
441 1 8.71639 5.79474 -0.332325 -186141 1.58936e+06
443 1 10.1202 5.83534 -0.419146 -184281 1.58589e+06
300 1 10.7993 4.59838 -0.291135 -162055 1.59469e+06
585 1 8.7411 8.26299 -0.423485 -143063 1.59919e+06
588 1 10.8069 9.52343 -0.360616 -149490 1.6145e+06
587 1 10.1243 8.2897 -0.346239 -144402 1.59353e+06
592 1 14.9968 9.51907 0.0134109 -147984 1.61406e+06
591 1 14.3707 8.24518 0.074271 -133473 1.62009e+06
4527 1 133.627 75.0653 -0.463623 168757 1.59009e+06
448 1 14.9929 7.00899 0.262612 -112727 1.61225e+06
589 1 12.9302 8.32167 -0.0164243 -127350 1.59803e+06
302 1 12.2355 4.59453 -0.218653 -161917 1.60571e+06
445 1 12.8774 5.82862 -0.10944 -145838 1.60481e+06
590 1 12.2364 9.54536 -0.279321 -149891 1.61388e+06
593 1 17.0668 8.22822 0.228746 -123357 1.60871e+06
978 1 116.481 14.3935 0.00204412 -85721.5 1.53536e+06
833 1 117.152 10.701 -0.090373 -73672 1.53188e+06
450 1 16.3912 6.97565 0.294285 -121802 1.61073e+06
304 1 14.962 4.56366 0.137717 -132574 1.59655e+06
447 1 14.2767 5.80193 0.162964 -145341 1.59979e+06
4397 1 130.838 72.5376 0.0227168 205128 1.61288e+06
3630 1 28.9033 61.388 -0.424548 161056 1.67746e+06
4398 1 131.568 73.7659 -0.0317529 198378 1.61217e+06
3755 1 22.6377 62.6748 -0.460023 175186 1.63699e+06
1455 1 14.2966 23.1201 -0.0705115 -37868.2 1.63087e+06
4529 1 135.002 75.0225 -0.717755 178305 1.59973e+06
4402 1 135.692 73.7889 -0.718914 176219 1.61429e+06
4253 1 130.754 70.0477 -0.267096 178328 1.6015e+06
3623 1 22.6262 60.204 -0.311451 118369 1.62755e+06
4256 1 132.85 71.3034 -0.583338 181758 1.59399e+06
1311 1 14.3264 20.6305 -0.0121386 -42487.5 1.64899e+06
1314 1 16.3921 21.9023 -0.0551214 -31131.2 1.62518e+06
3621 1 21.2218 60.1771 -0.321077 116113 1.64738e+06
3624 1 23.3197 61.455 -0.420074 142481 1.62822e+06
3753 1 21.2294 62.6796 -0.409359 178112 1.67166e+06
4400 1 132.947 73.7814 -0.339322 196250 1.58681e+06
4399 1 133.609 72.5632 -0.539406 191861 1.58951e+06
4519 1 125.284 74.968 -0.0724361 228689 1.66677e+06
4249 1 126.595 70.0035 -0.243681 195336 1.65356e+06
4252 1 128.721 71.2542 -0.16846 201341 1.60097e+06
3478 1 20.5158 58.9348 -0.218079 100622 1.63727e+06
4250 1 127.29 71.2654 -0.0659435 203492 1.63704e+06
4395 1 129.428 72.5063 -0.0569152 200870 1.5989e+06
4393 1 126.637 72.4798 -0.0330191 239030 1.63452e+06
4521 1 126.673 74.9725 -0.168636 225320 1.61719e+06
1457 1 17.0916 23.1035 -0.133429 -41409.7 1.62744e+06
3443 1 135.068 55.2012 -0.414654 85615.3 1.64524e+06
32 1 31.6514 -0.428403 -0.028034 -77184 1.51451e+06
4391 1 125.213 72.4897 -0.0220905 243930 1.68167e+06
4248 1 124.529 71.2532 -0.134486 230633 1.69056e+06
4247 1 125.18 70.0165 -0.0279887 193076 1.68667e+06
4445 1 31.0742 74.9802 -0.112151 230847 1.76042e+06
4270 1 148.21 71.2908 -0.0238876 136923 1.6475e+06
1315 1 18.4835 20.6519 -0.179249 -43267.9 1.60692e+06
4251 1 129.387 70.0484 -0.275259 179341 1.59678e+06
1183 1 30.9468 18.0727 -0.246241 -72254.6 1.51781e+06
607 1 30.9552 8.23 0.096536 -77331.6 1.49955e+06
1332 1 35.8353 21.7967 -0.388362 -61080.9 1.47808e+06
761 1 42.0453 10.727 -0.454827 -67435.1 1.43513e+06
4413 1 147.52 72.5131 -0.0960038 144159 1.63234e+06
618 1 41.2723 9.48498 -0.372379 -53344.5 1.43531e+06
474 1 41.3369 7.01623 -0.612746 -58165.8 1.44548e+06
473 1 41.9614 5.73884 -0.656647 -79839.4 1.42911e+06
3633 1 33.7492 60.1572 -0.160075 176218 1.71678e+06
328 1 39.9118 4.51688 -0.40761 -75923.1 1.47876e+06
3419 1 109.984 55.1792 -0.111468 56448.1 1.74435e+06
3071 1 47.5875 50.2381 -0.310892 -254594 1.64866e+06
3216 1 48.2738 53.8706 -0.461409 -240029 1.78245e+06
616 1 39.8686 9.49086 -0.455721 -53428.9 1.46638e+06
3072 1 48.2708 51.446 -0.392428 -209556 1.69024e+06
615 1 39.2319 8.2495 -0.425763 -44881.4 1.45951e+06
617 1 41.9607 8.28608 -0.601422 -41941.6 1.43702e+06
330 1 41.3152 4.54544 -0.438922 -77182.1 1.43232e+06
3215 1 47.5747 52.6238 -0.386255 -198048 1.75685e+06
476 1 44.0573 7.00122 -0.668247 -80418.5 1.40419e+06
478 1 45.5104 6.9802 -0.524881 -78569.2 1.39358e+06
332 1 44.0763 4.54862 -0.744811 -45499 1.42443e+06
621 1 46.2223 8.24492 -0.472802 -36251.2 1.3918e+06
334 1 45.4484 4.53122 -0.610158 -48045.4 1.41577e+06
763 1 43.423 10.7056 -0.569856 -75469.9 1.40557e+06
620 1 44.1176 9.48116 -0.55329 -50436.9 1.40766e+06
479 1 47.5573 5.79261 -0.69487 -45852.1 1.38127e+06
624 1 48.2661 9.48535 -0.29974 -37893.9 1.38159e+06
480 1 48.2906 7.00003 -0.466756 -22045.6 1.39491e+06
336 1 48.247 4.55262 -0.583665 -13840.3 1.37809e+06
623 1 47.6389 8.2466 -0.32431 -43601.3 1.38156e+06
477 1 46.176 5.78238 -0.657678 -38515.4 1.39611e+06
622 1 45.4994 9.47742 -0.502987 -43409.3 1.41383e+06
475 1 43.3856 5.78431 -0.740885 -85847.5 1.40829e+06
619 1 43.396 8.24164 -0.667932 -43202.9 1.40803e+06
767 1 47.6526 10.7018 -0.375776 -34093.9 1.39243e+06
340 1 52.4363 4.52042 -0.0140973 -22025.4 1.36182e+06
626 1 49.6926 9.43355 -0.190746 -48757.4 1.37401e+06
769 1 50.4345 10.6345 -0.0114026 -41590.1 1.36133e+06
481 1 50.4093 5.76656 -0.259457 -30218 1.38227e+06
482 1 49.7532 7.02109 -0.408703 -28302.3 1.37421e+06
625 1 50.4164 8.22189 -0.346685 -31529 1.37843e+06
483 1 51.765 5.7459 -0.0243758 -25134.4 1.35841e+06
484 1 52.434 6.96322 -0.0232024 -22808.6 1.36073e+06
3214 1 45.5551 53.8783 -0.344254 -80722.7 1.84946e+06
486 1 53.8425 6.95338 0.145115 -26681.1 1.33849e+06
3213 1 46.2009 52.6341 -0.308143 -186879 1.76256e+06
3322 1 8.06341 56.4752 -0.598651 99884.2 1.62634e+06
3467 1 10.1413 57.696 -0.376577 97726.4 1.62531e+06
4396 1 128.749 73.7245 -0.0304324 230481 1.61803e+06
1272 1 123.283 19.3649 -0.586166 -93922.1 1.57182e+06
3070 1 45.5051 51.4398 -0.211926 -196543 1.71878e+06
338 1 49.6797 4.54335 -0.359757 -16750.2 1.38172e+06
4394 1 127.329 73.6912 -0.132792 235113 1.6279e+06
4392 1 124.593 73.7502 -0.172949 241330 1.68088e+06
4242 1 118.993 71.2298 -0.300261 224523 1.68715e+06
4385 1 118.343 72.4455 -0.111138 212710 1.69526e+06
4241 1 118.328 69.9881 -0.235521 181958 1.67969e+06
4517 1 122.491 74.939 -0.292399 218959 1.69193e+06
4244 1 120.433 71.2297 -0.239363 223861 1.68714e+06
4389 1 122.527 72.4708 -0.109261 240494 1.69742e+06
4515 1 121.093 74.9664 -0.275572 224604 1.69732e+06
4245 1 122.452 69.994 -0.112982 210351 1.7036e+06
4243 1 121.054 69.9532 -0.175386 206645 1.68192e+06
3069 1 46.1886 50.2194 -0.290094 -245839 1.66526e+06
4246 1 123.14 71.208 -0.108996 229099 1.69591e+06
4387 1 121.086 72.469 -0.234279 244223 1.68667e+06
3068 1 44.0884 51.4496 -0.16452 -192980 1.74972e+06
1561 1 125.405 23.02 -0.241176 -83242.6 1.59608e+06
3361 1 50.3511 55.0572 -0.263398 -209826 1.78494e+06
3065 1 41.9796 50.2563 -0.052886 -149395 1.74261e+06
4513 1 118.347 74.9562 -0.172835 234966 1.69395e+06
4386 1 118.998 73.6927 -0.0208467 227924 1.69109e+06
1596 1 10.8881 26.796 -0.0637438 -26555.2 1.66433e+06
1458 1 16.3647 24.3203 -0.0921951 -54410 1.62862e+06
688 1 115.038 9.47594 0.0989061 -54246.3 1.52003e+06
4388 1 120.422 73.7062 -0.163422 235234 1.68418e+06
3067 1 43.4002 50.2149 -0.089556 -153354 1.74724e+06
4390 1 123.182 73.7193 -0.22536 246192 1.69381e+06
3066 1 41.3509 51.4584 -0.198291 -82134.5 1.78255e+06
1456 1 14.9996 24.318 -0.0104915 -54664 1.62299e+06
4509 1 114.179 74.988 -0.403732 213391 1.74306e+06
4235 1 112.744 69.9662 -0.421138 211886 1.77887e+06
3209 1 42.0392 52.6637 -0.287595 -82291 1.77988e+06
3345 1 33.7516 55.1648 -0.0593439 32760.1 1.70028e+06
3050 1 24.6666 51.4709 -0.434632 40253.4 1.65589e+06
3048 1 23.2707 51.501 -0.336347 42795.2 1.66123e+06
4379 1 112.765 72.4475 -0.410452 232336 1.79014e+06
4382 1 114.831 73.7231 -0.32219 230184 1.74878e+06
4236 1 112.075 71.2175 -0.392367 209892 1.78892e+06
4511 1 116.885 74.9492 -0.188096 239949 1.70286e+06
4239 1 116.933 69.9845 -0.348481 181256 1.6954e+06
696 1 123.354 9.4503 -0.213357 -88019.7 1.52596e+06
3044 1 19.122 51.5619 -0.124615 33374.9 1.62641e+06
555 1 126.827 5.79416 0.0413541 -123954 1.55678e+06
412 1 127.525 4.52534 -0.0287577 -110584 1.55344e+06
554 1 124.774 7.04932 0.0213408 -112131 1.56634e+06
699 1 126.838 8.26419 0.0572473 -98703.4 1.54669e+06
700 1 127.552 9.49707 -0.00723487 -106036 1.5443e+06
556 1 127.521 7.04513 0.157998 -115170 1.55074e+06
553 1 125.406 5.82048 0.107104 -114033 1.55759e+06
702 1 128.958 9.50163 -0.127773 -106704 1.5565e+06
697 1 125.453 8.282 0.157543 -96257.3 1.56275e+06
557 1 129.539 5.73886 -0.262401 -121475 1.56156e+06
414 1 128.883 4.53935 -0.206278 -108046 1.56701e+06
558 1 128.922 7.06781 -0.0893953 -112655 1.54939e+06
698 1 124.729 9.47579 0.00262871 -92751 1.56797e+06
560 1 131.644 7.03625 -0.270889 -94676.3 1.58784e+06
418 1 133.048 4.54404 -0.462758 -114088 1.60149e+06
563 1 135.175 5.77075 -0.45994 -102580 1.6142e+06
416 1 131.628 4.54801 -0.350063 -115870 1.57769e+06
704 1 131.712 9.48654 -0.353291 -101572 1.59248e+06
420 1 135.801 4.57755 -0.692595 -115935 1.61212e+06
559 1 130.951 5.78159 -0.228368 -122967 1.57432e+06
703 1 131.065 8.27082 -0.291291 -86810.8 1.58279e+06
706 1 133.122 9.5094 -0.242848 -106635 1.609e+06
564 1 135.824 7.01597 -0.553072 -90835.4 1.60923e+06
562 1 133.059 7.06124 -0.337098 -89253.1 1.61965e+06
707 1 135.157 8.27216 -0.58727 -90623.9 1.62034e+06
561 1 133.746 5.79814 -0.457603 -99295 1.62013e+06
705 1 133.776 8.26805 -0.315964 -95923.9 1.61551e+06
708 1 135.813 9.51441 -0.464188 -87281.2 1.6347e+06
714 1 141.345 9.51046 -0.961156 -100017 1.62505e+06
565 1 137.842 5.80866 -0.988113 -103578 1.62823e+06
711 1 139.247 8.30913 -0.817937 -99680.3 1.65162e+06
568 1 139.919 7.06105 -0.891502 -68140.1 1.65302e+06
567 1 139.24 5.83666 -0.939276 -105763 1.66118e+06
424 1 139.922 4.58394 -1.00685 -115925 1.65343e+06
569 1 142.018 5.8288 -1.0454 -108733 1.62344e+06
426 1 141.361 4.57761 -1.07589 -122448 1.62187e+06
709 1 137.855 8.30645 -0.669392 -104472 1.61232e+06
566 1 137.177 7.02078 -0.770195 -87797.8 1.61324e+06
710 1 137.193 9.56353 -0.663441 -88189.2 1.60295e+06
712 1 139.96 9.52244 -0.856942 -104486 1.64103e+06
570 1 141.365 7.04781 -0.897051 -78505.8 1.63774e+06
713 1 142.024 8.32576 -1.02297 -87649.2 1.627e+06
422 1 137.192 4.57505 -0.915709 -119063 1.63665e+06
717 1 146.184 8.23055 -0.70741 -94143.6 1.63993e+06
573 1 146.206 5.77474 -0.792955 -121809 1.62598e+06
576 1 148.305 7.01293 -0.571196 -121892 1.64059e+06
572 1 144.085 6.97124 -1.04096 -109991 1.61188e+06
574 1 145.478 7.00294 -0.886813 -110082 1.62239e+06
718 1 145.523 9.49725 -0.917023 -59841.1 1.64828e+06
715 1 143.399 8.26216 -1.06791 -84703.4 1.63051e+06
430 1 145.468 4.5668 -0.762495 -136973 1.63149e+06
720 1 148.288 9.4463 -0.592468 -111176 1.64604e+06
575 1 147.592 5.80217 -0.51455 -123510 1.62547e+06
719 1 147.565 8.21987 -0.497758 -95024.1 1.64283e+06
432 1 148.315 4.54949 -0.570969 -137074 1.62226e+06
428 1 144.081 4.55903 -1.06307 -134230 1.60257e+06
571 1 143.397 5.7674 -1.05681 -112731 1.61944e+06
863 1 147.561 10.6748 -0.887767 -71955 1.65945e+06
716 1 144.126 9.5185 -1.03758 -51237.4 1.64563e+06
721 1 0.465272 10.7036 -0.582134 -105278 1.64599e+06
723 1 1.86619 10.7224 -0.448023 -98049.3 1.62485e+06
867 1 1.85858 13.1964 -0.465999 -117408 1.62984e+06
865 1 0.467564 13.1467 -0.712545 -118594 1.64556e+06
722 1 -0.251551 11.9175 -0.751825 -82624.9 1.65821e+06
725 1 4.62027 10.7115 -0.488608 -100383 1.64395e+06
870 1 3.9352 14.4557 -0.408282 -107971 1.63258e+06
1010 1 -0.211442 16.8524 -0.80305 -108260 1.65368e+06
726 1 3.89522 11.9537 -0.512851 -119978 1.63691e+06
869 1 4.57186 13.1833 -0.434818 -119842 1.63335e+06
868 1 2.51257 14.4579 -0.449186 -102093 1.6397e+06
1013 1 4.57792 15.6879 -0.2801 -70386.7 1.64815e+06
1014 1 3.92271 16.9028 -0.418486 -63842.8 1.65545e+06
1011 1 1.86712 15.6948 -0.532255 -97832.9 1.64751e+06
724 1 2.48591 11.9594 -0.444487 -121855 1.61593e+06
866 1 -0.183044 14.3852 -0.775593 -103918 1.64658e+06
1009 1 0.486918 15.6446 -0.699967 -101386 1.65409e+06
1012 1 2.52237 16.9405 -0.456887 -56760.1 1.65883e+06
731 1 10.1185 10.7313 -0.25657 -147098 1.63087e+06
727 1 5.98705 10.7208 -0.458538 -104048 1.62944e+06
729 1 8.74579 10.6571 -0.197641 -136225 1.60695e+06
1018 1 8.02326 16.9254 -0.0107257 -47692.9 1.6522e+06
1017 1 8.68647 15.7065 -0.117723 -53328.3 1.64857e+06
732 1 10.8104 11.966 -0.248471 -125647 1.63623e+06
728 1 6.72139 11.9377 -0.432195 -110114 1.62772e+06
730 1 8.06758 11.9033 -0.190433 -112415 1.61722e+06
871 1 5.99069 13.1822 -0.398825 -111940 1.63943e+06
1015 1 5.99233 15.691 -0.139404 -67842.6 1.65042e+06
872 1 6.63446 14.3995 -0.178137 -81419.7 1.63935e+06
874 1 8.08245 14.4364 -0.146997 -80565.9 1.6378e+06
873 1 8.76767 13.1808 -0.116631 -73389.9 1.6305e+06
1016 1 6.63827 16.9358 -0.0353112 -42191.3 1.6572e+06
875 1 10.1953 13.2136 -0.0977633 -76624.4 1.63381e+06
4238 1 114.898 71.2567 -0.377752 206712 1.73377e+06
3043 1 18.4797 50.3005 -0.0891086 27805.9 1.6321e+06
3047 1 22.5805 50.2701 -0.354924 37632.5 1.6666e+06
3190 1 20.5401 54.0228 0.12844 77160.4 1.671e+06
733 1 12.9669 10.7989 -0.305339 -163478 1.61277e+06
4381 1 114.171 72.456 -0.456231 221173 1.74412e+06
4237 1 114.148 70.003 -0.451432 201777 1.72925e+06
736 1 14.9839 12.0009 -0.13556 -142352 1.60563e+06
3188 1 19.1372 53.9877 -0.00301191 71287.6 1.63378e+06
3046 1 20.5288 51.5705 -0.120534 30620.9 1.67136e+06
3045 1 21.2229 50.3195 -0.155253 25077.9 1.66793e+06
4383 1 116.957 72.4392 -0.246562 222516 1.69785e+06
4384 1 116.266 73.69 -0.173795 221919 1.70191e+06
4240 1 116.264 71.2404 -0.273131 204211 1.69909e+06
3189 1 21.2583 52.7847 0.049873 59591.3 1.66611e+06
735 1 14.3366 10.7845 -0.0340059 -157694 1.59551e+06
1598 1 12.2507 26.8292 -0.335131 -16733.8 1.65831e+06
3333 1 21.2331 55.2276 0.0766097 65179.9 1.65021e+06
3191 1 22.6403 52.7716 -0.126147 49903.6 1.65364e+06
3347 1 35.125 55.1648 -0.181204 42461 1.71621e+06
4380 1 112.109 73.6637 -0.288217 176959 1.77666e+06
4507 1 112.756 74.9628 -0.339294 211526 1.77432e+06
4233 1 109.998 69.9937 -0.462635 223575 1.80269e+06
4501 1 105.811 74.9036 0.135521 96329.5 1.88531e+06
4231 1 108.605 69.9685 -0.31172 226552 1.81139e+06
3040 1 14.9823 51.5616 -0.203996 57869.9 1.66426e+06
3321 1 8.7816 55.235 -0.662669 99558.3 1.62921e+06
3042 1 16.4182 51.5405 -0.136209 56703 1.62596e+06
892 1 27.4981 14.4223 -0.129205 -131227 1.53874e+06
1612 1 27.455 26.7563 -0.16303 -31429.2 1.56964e+06
3041 1 17.0745 50.2965 -0.24428 34855.2 1.62233e+06
3177 1 8.81047 52.7521 -0.543077 73737.5 1.63446e+06
1476 1 35.8293 24.2179 -0.354404 -42447.3 1.47916e+06
1044 1 35.7745 16.8684 -0.152401 -89092.6 1.47296e+06
1619 1 35.1173 25.4738 -0.219806 -57675.6 1.49931e+06
899 1 35.1107 13.1795 0.155982 -106089 1.46426e+06
1759 1 30.9359 27.9711 -0.230264 -57455 1.57814e+06
1626 1 41.4097 26.7003 -0.0196731 -61330.1 1.45483e+06
895 1 30.9358 13.1158 -0.0548525 -130427 1.51241e+06
3178 1 8.06299 53.9539 -0.724111 79504.3 1.63446e+06
3032 1 6.66512 51.5393 -0.340064 78842.8 1.62744e+06
3031 1 5.92869 50.3317 -0.327095 73322.8 1.627e+06
898 1 33.0185 14.3616 -0.0886536 -108950 1.4993e+06
3034 1 8.06278 51.5486 -0.399764 82241.5 1.62382e+06
1050 1 41.3564 16.8368 -0.181635 -74774 1.44839e+06
905 1 42.0647 13.1539 -0.339584 -60759.9 1.44616e+06
906 1 41.3217 14.405 -0.223902 -81610.7 1.44963e+06
1049 1 42.0023 15.5951 0.00126242 -71652.1 1.46048e+06
1047 1 39.2923 15.5523 -0.402224 -110571 1.43595e+06
762 1 41.3829 11.9523 -0.333 -77745.1 1.43595e+06
1048 1 39.957 16.84 -0.294517 -73719.5 1.44551e+06
758 1 37.1545 11.9225 0.0424642 -92305.2 1.46991e+06
904 1 39.9088 14.3271 -0.288171 -77020.7 1.45097e+06
903 1 39.225 13.1125 -0.306965 -93212.9 1.45384e+06
760 1 39.9746 11.8893 -0.373353 -81255.3 1.4635e+06
759 1 39.1943 10.707 -0.43668 -59772.6 1.46377e+06
757 1 37.7681 10.6782 -0.219238 -64129.5 1.49053e+06
1046 1 37.2033 16.8884 -0.346865 -86166.1 1.46079e+06
1045 1 37.8689 15.6395 -0.360839 -111628 1.45548e+06
902 1 37.2051 14.4073 -0.246527 -118447 1.45079e+06
901 1 37.8793 13.1333 -0.170649 -93158 1.4678e+06
909 1 46.2283 13.172 -0.365216 -23957.4 1.40072e+06
1051 1 43.3629 15.5719 -0.0565539 -67602 1.42267e+06
1055 1 47.6267 15.5934 -0.15697 -52765 1.39836e+06
764 1 44.1237 11.9248 -0.318423 -40392.6 1.4283e+06
907 1 43.4248 13.1467 -0.226227 -49687.4 1.42925e+06
908 1 44.149 14.3808 -0.123375 -29909.1 1.43228e+06
2866 1 132.978 46.5616 -0.226467 46784.6 1.65117e+06
766 1 45.5277 11.9379 -0.470284 -46116.6 1.40608e+06
768 1 48.3497 11.9594 -0.230502 -24531.9 1.38921e+06
911 1 47.6421 13.1428 -0.263164 -34790.9 1.38802e+06
912 1 48.3204 14.3515 -0.17747 -33472.2 1.39667e+06
1052 1 44.0884 16.8244 -0.0400317 -46963.9 1.40397e+06
2863 1 130.866 45.3099 -0.0205043 32979.6 1.69113e+06
2999 1 122.581 47.7601 -0.284388 12765 1.64503e+06
4043 1 56.8649 68.949 -0.515167 -1.26284e+06 -198218
3000 1 123.258 48.9967 -0.255358 29216.6 1.64145e+06
4181 1 56.0788 70.0755 -0.177879 -639762 588329
4182 1 56.8026 71.2962 0.0955168 1.231e+06 167218
4183 1 58.9404 70.1332 0.0754949 -1.10323e+06 362927
2786 1 49.6324 46.438 -0.111731 -146369 1.45618e+06
2785 1 50.3202 45.2111 -0.0781388 -76826.1 1.43911e+06
4177 1 51.8596 70.0162 0.0822004 15898.9 1.72322e+06
2928 1 48.3064 48.9866 -0.244185 -229936 1.5936e+06
4174 1 48.3598 71.1632 -0.303619 71125.9 1.89963e+06
2722 1 132.997 44.0743 -0.227249 25268.5 1.66241e+06
2618 1 24.6342 44.1128 -0.333303 -27378.4 1.63692e+06
2620 1 27.3895 44.0666 -0.182857 -68498.5 1.63466e+06
2906 1 24.6587 49.0316 -0.5366 24448.9 1.65298e+06
2763 1 26.7397 45.3062 -0.263595 -20892.7 1.64851e+06
1068 1 60.8205 16.835 -0.143051 321.164 1.31604e+06
2642 1 49.625 43.9565 -0.111908 -138059 1.40957e+06
4314 1 44.1761 73.6616 -0.401912 94269.9 1.93462e+06
2904 1 23.2667 49.0545 -0.520775 17804.2 1.65361e+06
2930 1 49.6725 48.9279 -0.389437 -246122 1.50821e+06
2888 1 6.63298 49.0802 -0.258449 75573.6 1.63589e+06
4313 1 43.5147 72.4087 -0.318247 133313 1.93644e+06
4457 1 43.5015 74.9356 -0.410615 116749 1.92778e+06
4169 1 43.6073 69.9458 -0.274393 178773 1.94469e+06
2414 1 112.234 39.1144 -0.0509435 -106625 1.59434e+06
2413 1 112.91 37.8381 -0.103327 -88353 1.57459e+06
4170 1 44.2989 71.2311 -0.428876 141507 1.93665e+06
1484 1 44.1776 24.2416 0.0769649 -57912.2 1.38737e+06
1116 1 110.81 16.8898 0.165164 -56569.6 1.4816e+06
1627 1 43.5225 25.5021 0.162815 -59926.3 1.41092e+06
2925 1 46.1515 47.7056 -0.285853 -190238 1.61749e+06
4455 1 42.1104 74.928 -0.151407 117266 1.88793e+06
4312 1 41.4531 73.6654 -0.0736694 121344 1.8874e+06
2412 1 110.848 39.1 0.108174 -104860 1.58692e+06
4168 1 41.4702 71.2003 -0.198937 171021 1.86634e+06
2780 1 44.1099 46.4534 -0.234543 -159573 1.62339e+06
4311 1 42.1366 72.4259 -0.208887 132216 1.87163e+06
2638 1 45.4897 43.9877 -0.276749 -155983 1.53674e+06
4453 1 39.3872 74.8964 -0.01033 158296 1.87441e+06