Graphene sheet in zig-zag direction

8948 atoms 

1 atom types 

#simulation box 
-1.302486 149.278486 xlo xhi
-0.698000 151.819000 ylo yhi
-100.000000 100.000000 zlo zhi

Masses

1 12.000000 

Atoms

1 1 0.008147 0.009058 0.001270 
2 1 -0.688866 1.215294 0.000975 
3 1 1.398785 0.005469 0.009575 
4 1 2.103649 1.210546 0.009706 
5 1 4.197572 0.004854 0.008003 
6 1 3.491419 1.213188 0.009157 
7 1 5.591922 0.009595 0.006557 
8 1 6.282357 1.217461 0.009340 
9 1 8.382787 0.007577 0.007431 
10 1 7.681922 1.215525 0.001712 
11 1 9.779060 0.000318 0.002769 
12 1 10.470462 1.209941 0.008235 
13 1 12.570948 0.003171 0.009502 
14 1 11.866344 1.213357 0.003816 
15 1 13.967655 0.007952 0.001869 
16 1 14.662898 1.213426 0.006463 
17 1 16.759094 0.007547 0.002760 
18 1 16.060797 1.215521 0.001626 
19 1 18.149190 0.004984 0.009597 
20 1 18.849404 1.214823 0.002238 
21 1 20.947513 0.002551 0.005060 
22 1 20.248991 1.217879 0.009593 
23 1 22.341472 0.001386 0.001493 
24 1 23.036575 1.217377 0.002543 
25 1 25.136143 0.002435 0.009293 
26 1 24.433500 1.210936 0.002511 
27 1 26.530160 0.004733 0.003517 
28 1 27.230308 1.214823 0.005497 
29 1 29.325172 0.002858 0.007572 
30 1 28.625537 1.212774 0.005678 
31 1 30.712759 0.000540 0.005308 
32 1 31.417792 1.218310 0.001299 
33 1 33.509688 0.004694 0.000119 
34 1 32.809371 1.210592 0.007943 
35 1 34.903112 0.005285 0.001656 
36 1 35.604020 1.211600 0.006541 
37 1 37.698892 0.007482 0.004505 
38 1 36.994838 1.211260 0.009133 
39 1 39.089524 0.008258 0.005383 
40 1 39.795961 1.209752 0.004427 
41 1 41.881067 0.009619 0.000046 
42 1 41.189749 1.217143 0.008687 
43 1 43.276844 0.003998 0.002599 
44 1 43.982001 1.213284 0.009106 
45 1 46.069818 0.002638 0.001455 
46 1 45.371361 1.217663 0.005797 
47 1 47.469499 0.001450 0.008530 
48 1 48.168221 1.212480 0.005132 
49 1 50.260018 0.000760 0.002399 
50 1 49.559233 1.210809 0.002400 
51 1 51.656173 0.000497 0.009027 
52 1 52.359448 1.213879 0.004893 
53 1 54.447377 0.009001 0.003692 
54 1 53.747112 1.216773 0.003897 
55 1 55.842417 0.004039 0.000965 
56 1 56.539320 1.218391 0.009561 
57 1 58.637752 0.000598 0.002348 
58 1 57.937532 1.217182 0.000154 
59 1 60.028430 0.001690 0.006491 
60 1 60.733317 1.215447 0.004509 
61 1 62.825470 0.002963 0.007447 
62 1 62.123890 1.215838 0.001835 
63 1 64.219685 0.006256 0.007802 
64 1 64.914811 1.218264 0.007757 
65 1 67.012868 0.004359 0.004468 
66 1 66.313063 1.214055 0.005108 
67 1 68.412176 0.007948 0.006443 
68 1 69.105786 1.217086 0.005328 
69 1 71.199507 0.009390 0.008759 
70 1 70.503502 1.215195 0.005870 
71 1 72.594077 0.003012 0.004709 
72 1 73.292305 1.217413 0.001948 
73 1 75.386259 0.001707 0.002277 
74 1 74.690357 1.212081 0.009234 
75 1 76.784302 0.001848 0.009049 
76 1 77.487797 1.213359 0.001111 
77 1 79.574581 0.004087 0.005949 
78 1 78.876622 1.214998 0.007112 
79 1 80.970217 0.001174 0.002967 
80 1 81.669188 1.213212 0.005079 
81 1 83.760855 0.002625 0.008010 
82 1 83.062292 1.218259 0.007303 
83 1 85.160886 0.005785 0.002373 
84 1 85.858588 1.218601 0.005468 
85 1 87.953211 0.002316 0.004889 
86 1 87.256241 1.215761 0.003955 
87 1 89.347674 0.009880 0.000377 
88 1 90.050852 1.218103 0.007962 
89 1 92.136987 0.002619 0.003354 
90 1 91.444797 1.210336 0.007212 
91 1 93.533068 0.006538 0.004942 
92 1 94.237791 1.216120 0.009037 
93 1 96.332909 0.003342 0.006987 
94 1 95.627978 1.209275 0.007441 
95 1 97.725000 0.004799 0.009047 
96 1 98.424099 1.215147 0.008594 
97 1 100.520055 0.005767 0.001829 
98 1 99.816399 1.217835 0.000287 
99 1 101.912899 0.001679 0.009787 
100 1 102.613127 1.213975 0.004711 
101 1 104.700596 0.006820 0.000424 
102 1 104.002714 1.214186 0.000967 
103 1 106.104181 0.008175 0.007224 
104 1 106.795499 1.215566 0.005186 
105 1 108.897730 0.006490 0.008003 
106 1 108.194538 1.213294 0.008253 
107 1 110.284835 0.001332 0.001734 
108 1 110.985909 1.217284 0.008034 
109 1 113.076605 0.003993 0.005269 
110 1 112.382168 1.215539 0.006280 
111 1 114.474920 0.004317 0.000155 
112 1 115.179841 1.210642 0.001062 
113 1 117.267724 0.001981 0.004897 
114 1 116.569395 1.218486 0.009203 
115 1 118.660527 0.007379 0.002691 
116 1 119.362228 1.214449 0.009427 
117 1 121.456177 0.009831 0.003015 
118 1 120.761011 1.215633 0.005391 
119 1 122.854981 0.006665 0.001781 
120 1 123.547280 1.218961 0.001711 
121 1 125.640326 0.005612 0.008819 
122 1 124.948692 1.210874 0.003689 
123 1 127.040607 0.009816 0.001564 
124 1 127.742555 1.215418 0.003763 
125 1 129.829909 0.004283 0.004820 
126 1 129.131206 1.214865 0.002262 
127 1 131.227846 0.005830 0.002518 
128 1 131.924904 1.215141 0.002653 
129 1 134.024244 0.009827 0.007302 
130 1 133.321439 1.214811 0.001078 
131 1 135.421063 0.008797 0.008178 
132 1 136.112607 1.214914 0.000225 
133 1 138.208253 0.003127 0.001615 
134 1 137.507788 1.213199 0.000942 
135 1 139.605985 0.004709 0.006959 
136 1 140.304999 1.215355 0.000336 
137 1 142.392688 0.003196 0.005309 
138 1 141.700544 1.213046 0.008200 
139 1 143.795184 0.009686 0.005313 
140 1 144.489251 1.210026 0.006110 
141 1 146.587788 0.004235 0.000908 
142 1 145.884665 1.210507 0.002810 
143 1 147.980401 0.005271 0.004574 
144 1 148.682754 1.214151 0.009436 
145 1 0.006377 2.427517 0.002407 
146 1 -0.691239 3.629801 0.006718 
147 1 1.402951 2.418620 0.002548 
148 1 2.096240 3.633588 0.008444 
149 1 4.191445 2.425745 0.006753 
150 1 3.490067 3.632932 0.003868 
151 1 5.593160 2.417952 0.004624 
152 1 6.286243 3.631519 0.007702 
153 1 8.379225 2.425787 0.004714 
154 1 7.678358 3.628669 0.007218 
155 1 9.776735 2.419467 0.003411 
156 1 10.476074 3.628827 0.007384 
157 1 12.566428 2.427114 0.002691 
158 1 11.873655 3.628797 0.002875 
159 1 13.960911 2.423702 0.006834 
160 1 14.663466 3.631167 0.006444 
161 1 16.758476 2.424730 0.006358 
162 1 16.063452 3.628999 0.007093 
163 1 18.150362 2.419134 0.006073 
164 1 18.850501 3.631497 0.006619 
165 1 20.947703 2.421442 0.006620 
166 1 20.246162 3.635329 0.008329 
167 1 22.338564 2.424075 0.005822 
168 1 23.039407 3.635609 0.002648 
169 1 25.131181 2.419132 0.009398 
170 1 24.436456 3.631705 0.006393 
171 1 26.529447 2.424413 0.005439 
172 1 27.229210 3.632135 0.009937 
173 1 29.318187 2.418998 0.001097 
174 1 28.618636 3.630956 0.004484 
175 1 30.715658 2.425575 0.006279 
176 1 31.417720 3.636239 0.009727 
177 1 33.505920 2.419329 0.006963 
178 1 32.806938 3.632164 0.005303 
179 1 34.908611 2.422789 0.003935 
180 1 35.604714 3.634323 0.005201 
181 1 37.695477 2.419440 0.005861 
182 1 36.996621 3.627355 0.007549 
183 1 39.090428 2.422364 0.006878 
184 1 39.789592 3.634273 0.003947 
185 1 41.886834 2.424980 0.004423 
186 1 41.182196 3.630219 0.004243 
187 1 43.278703 2.419911 0.008217 
188 1 43.978299 3.635788 0.003912 
189 1 46.075691 2.421908 0.008085 
190 1 45.377551 3.630684 0.002160 
191 1 47.471904 2.427433 0.003276 
192 1 48.168713 3.631296 0.008335 
193 1 50.263689 2.419613 0.008620 
194 1 49.567899 3.632054 0.008843 
195 1 51.657880 2.419488 0.001999 
196 1 52.354070 3.634397 0.008256 
197 1 54.451900 2.421125 0.005341 
198 1 53.746900 3.628027 0.001363 
199 1 55.846787 2.422892 0.001897 
200 1 56.542950 3.628386 0.000550 
201 1 58.640507 2.423546 0.009296 
202 1 57.940967 3.632738 0.008154 
203 1 60.036790 2.427829 0.000005 
204 1 60.734654 3.633036 0.009900 
205 1 62.825277 2.422735 0.008013 
206 1 62.124278 3.631891 0.009009 
207 1 64.221747 2.426392 0.007386 
208 1 64.919860 3.629377 0.006664 
209 1 67.008835 2.424200 0.006609 
210 1 66.317298 3.635818 0.009823 
211 1 68.411690 2.423754 0.009283 
212 1 69.107801 3.627080 0.001209 
213 1 71.204627 2.422783 0.008449 
214 1 70.500094 3.632433 0.006299 
215 1 72.592320 2.424087 0.003624 
216 1 73.290495 3.631806 0.001925 
217 1 75.385231 2.419995 0.001465 
218 1 74.687891 3.627337 0.006352 
219 1 76.782819 2.423326 0.006952 
220 1 77.482991 3.632268 0.004452 
221 1 79.573239 2.422844 0.008530 
222 1 78.882739 3.629613 0.002085 
223 1 80.973650 2.424343 0.004170 
224 1 81.668060 3.636389 0.000821 
225 1 83.761057 2.419360 0.001665 
226 1 83.068210 3.632647 0.000521 
227 1 85.165312 2.425227 0.007378 
228 1 85.854634 3.635514 0.009344 
229 1 87.957844 2.426529 0.007856 
230 1 87.255134 3.628686 0.003986 
231 1 89.345339 2.418249 0.009391 
232 1 90.045013 3.629865 0.003329 
233 1 92.140671 2.424422 0.000252 
234 1 91.446422 3.632500 0.008541 
235 1 93.535479 2.422400 0.000542 
236 1 94.231771 3.633538 0.003308 
237 1 96.332985 2.419122 0.009884 
238 1 95.631400 3.633979 0.009995 
239 1 97.722878 2.422085 0.004648 
240 1 98.425640 3.635092 0.001002 
241 1 100.513781 2.421536 0.000567 
242 1 99.819219 3.630268 0.001757 
243 1 101.910089 2.426992 0.006754 
244 1 102.610685 3.636031 0.001040 
245 1 104.707455 2.425303 0.005619 
246 1 104.003842 3.632882 0.002999 
247 1 106.097341 2.420066 0.008949 
248 1 106.794715 3.629335 0.000538 
249 1 108.892417 2.418073 0.008972 
250 1 108.191967 3.627844 0.003074 
251 1 110.288561 2.418957 0.009954 
252 1 110.985321 3.629883 0.000620 
253 1 113.078982 2.418404 0.005054 
254 1 112.385614 3.633221 0.000899 
255 1 114.472809 2.425712 0.009051 
256 1 115.175338 3.628002 0.008258 
257 1 117.267381 2.420880 0.007463 
258 1 116.566103 3.627394 0.006679 
259 1 118.666035 2.423201 0.007297 
260 1 119.365073 3.634724 0.002880 
261 1 121.458925 2.423507 0.003965 
262 1 120.754616 3.634712 0.003376 
263 1 122.854079 2.425353 0.001048 
264 1 123.547279 3.632405 0.004852 
265 1 125.648905 2.425930 0.007343 
266 1 124.942513 3.627639 0.000885 
267 1 127.043984 2.427370 0.006837 
268 1 127.735321 3.634137 0.001104 
269 1 129.829175 2.424347 0.003288 
270 1 129.136538 3.634401 0.005832 
271 1 131.231400 2.420288 0.007350 
272 1 131.931706 3.635579 0.000862 
273 1 134.019664 2.421632 0.006850 
274 1 133.323979 3.634804 0.003677 
275 1 135.414060 2.418807 0.007719 
276 1 136.112057 3.630793 0.005518 
277 1 138.206290 2.424359 0.004845 
278 1 137.507518 3.634729 0.001006 
279 1 139.602941 2.420314 0.005309 
280 1 140.298915 3.630963 0.001048 
281 1 142.393123 2.425784 0.002916 
282 1 141.700035 3.636554 0.004325 
283 1 143.794948 2.425521 0.004326 
284 1 144.492555 3.628008 0.009338 
285 1 146.581875 2.420602 0.007978 
286 1 145.886876 3.634600 0.003960 
287 1 147.978729 2.418312 0.006733 
288 1 148.678296 3.631427 0.006099 
289 1 0.000594 4.839048 0.007727 
290 1 -0.691036 6.046113 0.001302 
291 1 1.396924 4.835968 0.004231 
292 1 2.100556 6.052089 0.005312 
293 1 4.189088 4.842208 0.001265 
294 1 3.491343 6.045846 0.001420 
295 1 5.585683 4.837852 0.003175 
296 1 6.285164 6.047036 0.002510 
297 1 8.384929 4.842922 0.005557 
298 1 7.679844 6.046980 0.000773 
299 1 9.781138 4.842957 0.005578 
300 1 10.473134 6.046522 0.006225 
301 1 12.573879 4.837594 0.002578 
302 1 11.869968 6.045600 0.006841 
303 1 13.964024 4.845718 0.004022 
304 1 14.664207 6.046404 0.003813 
305 1 16.753611 4.843471 0.008711 
306 1 16.057508 6.051715 0.002941 
307 1 18.153306 4.844214 0.005975 
308 1 18.849353 6.047852 0.004526 
309 1 20.944226 4.839486 0.005583 
310 1 20.249425 6.049103 0.004294 
311 1 22.337249 4.836134 0.002902 
312 1 23.037175 6.051397 0.009569 
313 1 25.137357 4.840469 0.002405 
314 1 24.437639 6.052453 0.007406 
315 1 26.531437 4.836949 0.006816 
316 1 27.226633 6.046982 0.000985 
317 1 29.324236 4.837640 0.001636 
318 1 28.624660 6.053804 0.005166 
319 1 30.719027 4.837426 0.009535 
320 1 31.415409 6.051657 0.000366 
321 1 33.512092 4.843376 0.001202 
322 1 32.811250 6.048118 0.005464 
323 1 34.903989 4.840041 0.001807 
324 1 35.600554 6.045065 0.009237 
325 1 37.698537 4.845216 0.001635 
326 1 37.003211 6.052807 0.005774 
327 1 39.092400 4.838466 0.007519 
328 1 39.788287 6.045502 0.007673 
329 1 41.886712 4.843042 0.006421 
330 1 41.186190 6.048768 0.008161 
331 1 43.279174 4.844035 0.007891 
332 1 43.982523 6.049916 0.006357 
333 1 46.077509 4.840330 0.000600 
334 1 45.378667 6.051172 0.003551 
335 1 47.473970 4.838132 0.006525 
336 1 48.168050 6.048732 0.001422 
337 1 50.256251 4.840101 0.001841 
338 1 49.565258 6.048564 0.008416 
339 1 51.659342 4.841600 0.001769 
340 1 52.359574 6.047513 0.009246 
341 1 54.446238 4.839626 0.000875 
342 1 53.752401 6.046666 0.000451 
343 1 55.847232 4.839364 0.006606 
344 1 56.541839 6.051133 0.000216 
345 1 58.641106 4.843896 0.007458 
346 1 57.942131 6.048693 0.006173 
347 1 60.033755 4.841191 0.002751 
348 1 60.728486 6.049376 0.002277 
349 1 62.828044 4.845751 0.000300 
350 1 62.127357 6.045731 0.008021 
351 1 64.225891 4.836559 0.009394 
352 1 64.914182 6.051698 0.007837 
353 1 67.013341 4.844744 0.008990 
354 1 66.316259 6.046239 0.002178 
355 1 68.405821 4.836308 0.001069 
356 1 69.108164 6.054257 0.003545 
357 1 71.200106 4.845733 0.009456 
358 1 70.504766 6.054743 0.007668 
359 1 72.595367 4.842514 0.002442 
360 1 73.292955 6.051662 0.005278 
361 1 75.388116 4.841916 0.007505 
362 1 74.691835 6.050378 0.005836 
363 1 76.785118 4.836716 0.007196 
364 1 77.487962 6.048405 0.009713 
365 1 79.575464 4.844755 0.004547 
366 1 78.878134 6.047037 0.001257 
367 1 80.971089 4.843151 0.007829 
368 1 81.672938 6.044958 0.008432 
369 1 83.769223 4.843600 0.000427 
370 1 83.065782 6.051903 0.007295 
371 1 85.158243 4.838581 0.006730 
372 1 85.858775 6.051097 0.002364 
373 1 87.949771 4.844186 0.007669 
374 1 87.259345 6.045939 0.001822 
375 1 89.344991 4.840788 0.001932 
376 1 90.050959 6.045851 0.000442 
377 1 92.141573 4.843615 0.003119 
378 1 91.439790 6.048250 0.002101 
379 1 93.537102 4.844954 0.006289 
380 1 94.231015 6.048769 0.000546 
381 1 96.329013 4.840207 0.009976 
382 1 95.634116 6.049717 0.008944 
383 1 97.721375 4.839790 0.009274 
384 1 98.427175 6.051996 0.006183 
385 1 100.515433 4.845250 0.001248 
386 1 99.821306 6.051325 0.008332 
387 1 101.911983 4.843388 0.008352 
388 1 102.609225 6.050383 0.009791 
389 1 104.705493 4.839194 0.006195 
390 1 104.005606 6.052425 0.004139 
391 1 106.100923 4.842837 0.009727 
392 1 106.797278 6.053238 0.007391 
393 1 108.897542 4.836209 0.003569 
394 1 108.196627 6.047675 0.002304 
395 1 110.291111 4.842136 0.005906 
396 1 110.988604 6.045336 0.003488 
397 1 113.080513 4.838299 0.007150 
398 1 112.386562 6.047675 0.007311 
399 1 114.473378 4.844257 0.001386 
400 1 115.175882 6.048522 0.008068 
401 1 117.269038 4.840786 0.008770 
402 1 116.569531 6.049354 0.009635 
403 1 118.660423 4.845620 0.001892 
404 1 119.364671 6.050724 0.006751 
405 1 121.455610 4.842093 0.008112 
406 1 120.754193 6.045699 0.009748 
407 1 122.854513 4.838202 0.004035 
408 1 123.547220 6.047544 0.002578 
409 1 125.643317 4.837412 0.003480 
410 1 124.943217 6.053702 0.000943 
411 1 127.045300 4.839880 0.000474 
412 1 127.737424 6.052220 0.007947 
413 1 129.833449 4.842752 0.008936 
414 1 129.130548 6.047897 0.000462 
415 1 131.225955 4.843092 0.007218 
416 1 131.930778 6.050684 0.000707 
417 1 134.025227 4.843894 0.002859 
418 1 133.323437 6.054708 0.007157 
419 1 135.420390 4.840223 0.004706 
420 1 136.115607 6.047551 0.007490 
421 1 138.209039 4.842358 0.003077 
422 1 137.507387 6.049616 0.003625 
423 1 139.607881 4.843693 0.006685 
424 1 140.299335 6.045076 0.005598 
425 1 142.395008 4.845284 0.009809 
426 1 141.696866 6.052868 0.008961 
427 1 143.793975 4.844730 0.009437 
428 1 144.491492 6.052144 0.005768 
429 1 146.580259 4.840355 0.006463 
430 1 145.887212 6.048583 0.009371 
431 1 147.984295 4.844381 0.003725 
432 1 148.679932 6.053586 0.009335 
433 1 0.006685 7.255898 0.006539 
434 1 -0.697279 8.466867 0.006669 
435 1 1.405337 7.261940 0.004845 
436 1 2.101567 8.466970 0.009718 
437 1 4.197880 7.262471 0.003889 
438 1 3.494547 8.465267 0.007844 
439 1 5.592828 7.262967 0.005583 
440 1 6.287989 8.464289 0.008997 
441 1 8.380504 7.255887 0.008997 
442 1 7.685626 8.471625 0.002850 
443 1 9.778732 7.260473 0.001228 
444 1 10.474073 8.465553 0.007167 
445 1 12.566834 7.262792 0.008266 
446 1 11.869900 8.467779 0.006948 
447 1 13.968344 7.259926 0.005747 
448 1 14.661260 8.467364 0.007138 
449 1 16.760844 7.261039 0.000186 
450 1 16.060748 8.467185 0.004378 
451 1 18.149170 7.261977 0.003249 
452 1 18.848462 8.466227 0.003757 
453 1 20.945466 7.259449 0.003958 
454 1 20.245981 8.467954 0.006575 
455 1 22.345509 7.261053 0.004001 
456 1 23.042319 8.464143 0.000605 
457 1 25.128842 7.255469 0.003242 
458 1 24.433017 8.462917 0.005399 
459 1 26.524954 7.255295 0.006311 
460 1 27.230593 8.472542 0.005708 
461 1 29.325969 7.259365 0.005155 
462 1 28.621307 8.467100 0.004918 
463 1 30.712710 7.262707 0.000646 
464 1 31.414362 8.471066 0.003945 
465 1 33.510135 7.262016 0.008862 
466 1 32.815311 8.464708 0.002586 
467 1 34.908979 7.259764 0.005038 
468 1 35.604128 8.470994 0.005319 
469 1 37.694021 7.258369 0.004279 
470 1 37.003661 8.469001 0.006954 
471 1 39.095202 7.257299 0.005170 
472 1 39.791567 8.464365 0.005621 
473 1 41.886948 7.258095 0.008363 
474 1 41.189314 8.466400 0.004542 
475 1 43.279864 7.261586 0.007343 
476 1 43.978303 8.469738 0.009452 
477 1 46.075842 7.260886 0.001093 
478 1 45.373899 8.468709 0.004594 
479 1 47.464503 7.256117 0.008342 
480 1 48.162156 8.471437 0.000781 
481 1 50.262690 7.258832 0.002180 
482 1 49.563716 8.464022 0.006712 
483 1 51.657996 7.254390 0.000563 
484 1 52.351525 8.462996 0.004352 
485 1 54.452322 7.260004 0.005201 
486 1 53.754639 8.463777 0.009081 
487 1 55.841080 7.259000 0.001432 
488 1 56.543594 8.462846 0.007667 
489 1 58.640487 7.262998 0.009870 
490 1 57.939051 8.465514 0.001008 
491 1 60.033078 7.259686 0.007629 
492 1 60.726830 8.469416 0.005170 
493 1 62.821710 7.263216 0.005905 
494 1 62.126406 8.472219 0.006559 
495 1 64.220519 7.262227 0.005326 
496 1 64.919539 8.469601 0.003672 
497 1 67.010393 7.259619 0.008669 
498 1 66.314068 8.463926 0.004438 
499 1 68.407002 7.257844 0.008334 
500 1 69.106036 8.466702 0.003604 
501 1 71.197403 7.256431 0.000868 
502 1 70.502294 8.465373 0.002976 
503 1 72.596249 7.255022 0.004951 
504 1 73.297064 8.465236 0.007851 
505 1 75.384741 7.257769 0.000034 
506 1 74.688207 8.462813 0.001892 
507 1 76.781425 7.256511 0.001749 
508 1 77.479386 8.468789 0.009011 
509 1 79.581394 7.256042 0.004827 
510 1 78.877760 8.468038 0.002649 
511 1 80.968684 7.258193 0.001739 
512 1 81.666261 8.472347 0.004306 
513 1 83.769616 7.261454 0.000073 
514 1 83.068800 8.469860 0.006451 
515 1 85.161523 7.256011 0.007724 
516 1 85.856280 8.466509 0.008909 
517 1 87.956564 7.257854 0.003180 
518 1 87.256086 8.471902 0.009091 
519 1 89.349916 7.257156 0.008531 
520 1 90.046424 8.471844 0.000332 
521 1 92.141324 7.260995 0.001793 
522 1 91.441365 8.464677 0.003219 
523 1 93.536039 7.259316 0.000487 
524 1 94.235527 8.465548 0.002415 
525 1 96.326431 7.255372 0.009564 
526 1 95.635357 8.470987 0.007283 
527 1 97.721758 7.257434 0.001888 
528 1 98.418012 8.465964 0.006996 
529 1 100.518253 7.259261 0.004390 
530 1 99.816874 8.467817 0.007615 
531 1 101.915624 7.259591 0.007477 
532 1 102.612455 8.464032 0.005044 
533 1 104.703473 7.254751 0.001478 
534 1 104.003982 8.469523 0.004315 
535 1 106.102944 7.256398 0.000098 
536 1 106.799323 8.465594 0.009462 
537 1 108.897064 7.257757 0.000249 
538 1 108.196714 8.471172 0.009715 
539 1 110.284569 7.258333 0.005825 
540 1 110.988866 8.469994 0.006500 
541 1 113.083269 7.257568 0.005816 
542 1 112.379161 8.463377 0.009798 
543 1 114.474848 7.259780 0.009622 
544 1 115.171858 8.464730 0.003416 
545 1 117.273329 7.257737 0.002732 
546 1 116.567519 8.466771 0.003747 
547 1 118.661311 7.258180 0.000915 
548 1 119.364146 8.462910 0.005733 
549 1 121.459897 7.256184 0.004480 
550 1 120.759694 8.463414 0.004963 
551 1 122.854423 7.256043 0.008371 
552 1 123.555711 8.471264 0.005060 
553 1 125.642789 7.261296 0.002369 
554 1 124.951573 8.469003 0.006003 
555 1 127.037726 7.254733 0.002553 
556 1 127.742586 8.471911 0.006996 
557 1 129.835252 7.256129 0.005761 
558 1 129.138106 8.466838 0.009884 
559 1 131.224900 7.257039 0.005114 
560 1 131.922606 8.470057 0.005566 
561 1 134.021294 7.262130 0.008588 
562 1 133.325890 8.465978 0.004522 
563 1 135.419522 7.254929 0.001097 
564 1 136.112699 8.468046 0.009727 
565 1 138.211104 7.256949 0.002915 
566 1 137.514504 8.471916 0.006393 
567 1 139.602554 7.254717 0.008383 
568 1 140.303847 8.472281 0.000610 
569 1 142.397846 7.256681 0.008277 
570 1 141.695910 8.467225 0.003934 
571 1 143.796266 7.260599 0.002076 
572 1 144.489181 8.464138 0.006715 
573 1 146.585710 7.255528 0.001477 
574 1 145.886761 8.471881 0.005522 
575 1 147.976329 7.254369 0.008051 
576 1 148.678514 8.466626 0.007896 
577 1 0.003643 9.677093 0.007117 
578 1 -0.689285 10.883987 0.006501 
579 1 1.405748 9.672530 0.005870 
580 1 2.098139 10.883791 0.002638 
581 1 4.195588 9.681722 0.001866 
582 1 3.497811 10.882658 0.009924 
583 1 5.592023 9.676012 0.007289 
584 1 6.286984 10.888790 0.003565 
585 1 8.376732 9.677680 0.009102 
586 1 7.679938 10.885024 0.007492 
587 1 9.772392 9.681233 0.007637 
588 1 10.475588 10.882538 0.004979 
589 1 12.569178 9.681712 0.008549 
590 1 11.875624 10.887489 0.004035 
591 1 13.969350 9.676565 0.002318 
592 1 14.661963 10.887751 0.005586 
593 1 16.759566 9.681725 0.009624 
594 1 16.059351 10.890339 0.001156 
595 1 18.148514 9.674813 0.005802 
596 1 18.851310 10.889712 0.005406 
597 1 20.944320 9.677197 0.007124 
598 1 20.242167 10.888709 0.001425 
599 1 22.340785 9.674338 0.003691 
600 1 23.040618 10.882396 0.002788 
601 1 25.129982 9.673721 0.003268 
602 1 24.438803 10.885411 0.004040 
603 1 26.525792 9.681459 0.004075 
604 1 27.230445 10.886853 0.003766 
605 1 29.324772 9.679619 0.004650 
606 1 28.626140 10.889684 0.004292 
607 1 30.715343 9.677736 0.009020 
608 1 31.417021 10.884475 0.007350 
609 1 33.513541 9.677198 0.005401 
610 1 32.809111 10.881412 0.001820 
611 1 34.900930 9.676405 0.000093 
612 1 35.607150 10.887127 0.000014 
613 1 37.692304 9.673855 0.004550 
614 1 36.995273 10.880786 0.007271 
615 1 39.091541 9.679574 0.004367 
616 1 39.790366 10.881192 0.000496 
617 1 41.880911 9.677710 0.002411 
618 1 41.190414 10.889272 0.009636 
619 1 43.280889 9.673973 0.002262 
620 1 43.979368 10.888321 0.003476 
621 1 46.072612 9.678163 0.009173 
622 1 45.371616 10.887856 0.005777 
623 1 47.468333 9.680612 0.003931 
624 1 48.163790 10.887033 0.006240 
625 1 50.259279 9.679800 0.009995 
626 1 49.567810 10.881970 0.002322 
627 1 51.652236 9.677844 0.001108 
628 1 52.354075 10.889541 0.005481 
629 1 54.447690 9.673853 0.004409 
630 1 53.755562 10.881940 0.004708 
631 1 55.848569 9.672204 0.006916 
632 1 56.547790 10.883533 0.001338 
633 1 58.638853 9.680865 0.006109 
634 1 57.943000 10.882634 0.007544 
635 1 60.031463 9.675956 0.001557 
636 1 60.734190 10.886949 0.007386 
637 1 62.828051 9.672442 0.009508 
638 1 62.126976 10.888251 0.007424 
639 1 64.224311 9.673335 0.004573 
640 1 64.920181 10.890022 0.008351 
641 1 67.016954 9.677595 0.005827 
642 1 66.318549 10.881049 0.008854 
643 1 68.408077 9.672134 0.007461 
644 1 69.103548 10.882139 0.006060 
645 1 71.198545 9.675012 0.004018 
646 1 70.502064 10.884562 0.006098 
647 1 72.593669 9.673651 0.000946 
648 1 73.293232 10.888396 0.002341 
649 1 75.391404 9.678698 0.008241 
650 1 74.694280 10.883634 0.003094 
651 1 76.785230 9.675023 0.008318 
652 1 77.486103 10.886270 0.002630 
653 1 79.578806 9.674107 0.004564 
654 1 78.877846 10.886086 0.009917 
655 1 80.975552 9.681575 0.002348 
656 1 81.671286 10.881214 0.007569 
657 1 83.766020 9.680342 0.009883 
658 1 83.071295 10.884795 0.000003 
659 1 85.161409 9.673847 0.002193 
660 1 85.857258 10.881659 0.007475 
661 1 87.955485 9.677203 0.003381 
662 1 87.258323 10.886226 0.009575 
663 1 89.352928 9.675335 0.005464 
664 1 90.045467 10.886928 0.007966 
665 1 92.143459 9.673025 0.008224 
666 1 91.438252 10.884844 0.007314 
667 1 93.539814 9.675443 0.007449 
668 1 94.238923 10.883126 0.001296 
669 1 96.326251 9.675270 0.002871 
670 1 95.635275 10.881213 0.005927 
671 1 97.721629 9.680154 0.001676 
672 1 98.423022 10.890693 0.003554 
673 1 100.512471 9.673907 0.003978 
674 1 99.817337 10.882996 0.009361 
675 1 101.914832 9.681391 0.004380 
676 1 102.615403 10.880758 0.006103 
677 1 104.708011 9.674100 0.009325 
678 1 104.009633 10.888964 0.005735 
679 1 106.103926 9.675060 0.002235 
680 1 106.797124 10.886545 0.008299 
681 1 108.890905 9.675796 0.008621 
682 1 108.196147 10.890612 0.002037 
683 1 110.292272 9.678529 0.002489 
684 1 110.986758 10.884691 0.005994 
685 1 113.084005 9.672821 0.008214 
686 1 112.386411 10.884245 0.004301 
687 1 114.477722 9.678778 0.007425 
688 1 115.177579 10.884591 0.004293 
689 1 117.273563 9.677500 0.008497 
690 1 116.568763 10.886923 0.005884 
691 1 118.669635 9.672629 0.005005 
692 1 119.363216 10.881602 0.009047 
693 1 121.460844 9.676160 0.007817 
694 1 120.755485 10.886898 0.002606 
695 1 122.852457 9.680210 0.001962 
696 1 123.549039 10.885533 0.003378 
697 1 125.647985 9.681645 0.001590 
698 1 124.944369 10.887722 0.003755 
699 1 127.045737 9.681493 0.006437 
700 1 127.742601 10.884719 0.006319 
701 1 129.837852 9.677365 0.009336 
702 1 129.137203 10.885540 0.006390 
703 1 131.232876 9.673757 0.003954 
704 1 131.931922 10.884724 0.006589 
705 1 134.025013 9.681724 0.006532 
706 1 133.319084 10.881061 0.006181 
707 1 135.417671 9.681390 0.007461 
708 1 136.116625 10.885933 0.002599 
709 1 138.213620 9.677172 0.000303 
710 1 137.512963 10.885897 0.000590 
711 1 139.608900 9.675072 0.002297 
712 1 140.299139 10.883809 0.002284 
713 1 142.398520 9.672432 0.002754 
714 1 141.696818 10.889501 0.004443 
715 1 143.795559 9.677803 0.007833 
716 1 144.487139 10.890486 0.008486 
717 1 146.580506 9.676432 0.003257 
718 1 145.888302 10.883003 0.005799 
719 1 147.982032 9.677769 0.004484 
720 1 148.674354 10.885838 0.004077 
721 1 0.001080 12.094299 0.004509 
722 1 -0.692489 13.306754 0.007009 
723 1 1.404722 12.090222 0.002197 
724 1 2.098596 13.308285 0.007900 
725 1 4.192519 12.093034 0.000591 
726 1 3.497409 13.303768 0.001999 
727 1 5.588272 12.091387 0.007517 
728 1 6.285684 13.308118 0.000172 
729 1 8.384291 12.095966 0.005387 
730 1 7.684505 13.305966 0.000945 
731 1 9.780776 12.089844 0.002943 
732 1 10.471799 13.307963 0.000682 
733 1 12.569811 12.096072 0.006513 
734 1 11.874646 13.299260 0.008169 
735 1 13.965289 12.096644 0.002124 
736 1 14.663433 13.305725 0.009564 
737 1 16.756445 12.090554 0.000573 
738 1 16.060295 13.306662 0.006912 
739 1 18.151453 12.099168 0.005202 
740 1 18.855538 13.299436 0.002070 
741 1 20.947750 12.098842 0.007826 
742 1 20.244955 13.300218 0.008479 
743 1 22.343849 12.092408 0.002278 
744 1 23.037210 13.306996 0.008222 
745 1 25.133707 12.095418 0.002860 
746 1 24.436991 13.306663 0.004416 
747 1 26.528462 12.094357 0.002790 
748 1 27.228754 13.307737 0.009085 
749 1 29.323472 12.092305 0.006896 
750 1 28.619318 13.299935 0.001909 
751 1 30.713457 12.095550 0.000734 
752 1 31.418223 13.305929 0.009259 
753 1 33.508926 12.096249 0.008901 
754 1 32.811385 13.301522 0.009760 
755 1 34.900364 12.092962 0.009730 
756 1 35.601650 13.301791 0.001209 
757 1 37.701158 12.091055 0.003321 
758 1 37.002975 13.303696 0.006153 
759 1 39.093831 12.096683 0.000293 
760 1 39.791279 13.299021 0.008271 
761 1 41.883400 12.098167 0.002461 
762 1 41.187815 13.308077 0.000478 
763 1 43.276540 12.089906 0.006815 
764 1 43.979986 13.299840 0.007962 
765 1 46.074179 12.090402 0.000693 
766 1 45.371360 13.306589 0.000924 
767 1 47.466379 12.092136 0.001048 
768 1 48.170584 13.305682 0.007337 
769 1 50.262505 12.094863 0.003264 
770 1 49.564618 13.299876 0.001478 
771 1 51.652198 12.099343 0.009704 
772 1 52.351239 13.303374 0.006567 
773 1 54.446902 12.097245 0.005581 
774 1 53.750278 13.301372 0.007537 
775 1 55.848984 12.096984 0.004068 
776 1 56.547383 13.301254 0.005332 
777 1 58.641548 12.092377 0.002501 
778 1 57.943277 13.299386 0.002994 
779 1 60.033916 12.091733 0.006359 
780 1 60.733984 13.303717 0.006508 
781 1 62.827960 12.092034 0.006008 
782 1 62.123125 13.303858 0.008378 
783 1 64.225208 12.094682 0.002776 
784 1 64.920525 13.307873 0.005098 
785 1 67.017742 12.091673 0.001112 
786 1 66.312974 13.302664 0.004208 
787 1 68.407115 12.096638 0.000919 
788 1 69.106021 13.301652 0.003065 
789 1 71.197056 12.095638 0.002827 
790 1 70.499552 13.298707 0.002836 
791 1 72.597508 12.098409 0.000423 
792 1 73.299047 13.300010 0.008337 
793 1 75.392005 12.098879 0.001373 
794 1 74.691047 13.302750 0.001736 
795 1 76.785752 12.095762 0.002144 
796 1 77.483199 13.308592 0.004899 
797 1 79.578949 12.093814 0.000348 
798 1 78.876928 13.306714 0.003465 
799 1 80.968833 12.094811 0.003668 
800 1 81.673395 13.303947 0.008045 
801 1 83.768169 12.091595 0.001237 
802 1 83.070210 13.305079 0.000161 
803 1 85.164960 12.094854 0.005445 
804 1 85.860064 13.306304 0.008553 
805 1 87.951829 12.090546 0.007339 
806 1 87.253320 13.307097 0.003717 
807 1 89.352282 12.091465 0.001295 
808 1 90.050799 13.299141 0.006867 
809 1 92.143338 12.094072 0.003798 
810 1 91.447797 13.302690 0.004402 
811 1 93.533568 12.092960 0.003141 
812 1 94.238945 13.301170 0.003107 
813 1 96.328089 12.096780 0.001436 
814 1 95.634713 13.299532 0.004617 
815 1 97.720304 12.097232 0.007000 
816 1 98.420145 13.305499 0.005573 
817 1 100.520507 12.095286 0.009018 
818 1 99.818195 13.302281 0.004890 
819 1 101.910560 12.098992 0.004668 
820 1 102.608540 13.303012 0.007025 
821 1 104.704023 12.091518 0.008563 
822 1 104.007842 13.302436 0.002217 
823 1 106.098190 12.094922 0.004334 
824 1 106.801413 13.299404 0.008473 
825 1 108.894799 12.091067 0.008584 
826 1 108.191998 13.304773 0.005430 
827 1 110.285623 12.089757 0.007715 
828 1 110.989648 13.302911 0.000568 
829 1 113.081857 12.091442 0.007286 
830 1 112.383343 13.301231 0.009171 
831 1 114.479582 12.098570 0.000688 
832 1 115.171835 13.306071 0.006967 
833 1 117.271770 12.094719 0.004255 
834 1 116.572112 13.307258 0.006708 
835 1 118.665236 12.092688 0.007040 
836 1 119.361816 13.304377 0.008879 
837 1 121.460429 12.098688 0.009390 
838 1 120.762154 13.298714 0.000031 
839 1 122.848875 12.092307 0.000228 
840 1 123.550241 13.302111 0.005414 
841 1 125.649262 12.092685 0.003381 
842 1 124.950595 13.302105 0.001381 
843 1 127.041078 12.098267 0.003843 