ITEM: TIMESTEP
0
ITEM: NUMBER OF ATOMS
9072
ITEM: BOX BOUNDS ss ss ss
-0.698 148.674
0 151.121
0 0
ITEM: ATOMS id type xu yu zu
 1 1 0 0 0
 2 1 -0.698 1.20897 0
 3 1 1.396 0 0
 4 1 2.094 1.20897 0
 5 1 4.188 0 0
 6 1 3.49 1.20897 0
 7 1 5.584 0 0
 8 1 6.282 1.20897 0
 9 1 8.376 0 0
 10 1 7.678 1.20897 0
 11 1 9.772 0 0
 12 1 10.47 1.20897 0
 13 1 12.564 0 0
 14 1 11.866 1.20897 0
 15 1 13.96 0 0
 16 1 14.658 1.20897 0
 17 1 16.752 0 0
 18 1 16.054 1.20897 0
 19 1 18.148 0 0
 20 1 18.846 1.20897 0
 21 1 20.94 0 0
 22 1 20.242 1.20897 0
 23 1 22.336 0 0
 24 1 23.034 1.20897 0
 25 1 25.128 0 0
 26 1 24.43 1.20897 0
 27 1 26.524 0 0
 28 1 27.222 1.20897 0
 29 1 29.316 0 0
 30 1 28.618 1.20897 0
 31 1 30.712 0 0
 32 1 31.41 1.20897 0
 33 1 33.504 0 0
 34 1 32.806 1.20897 0
 35 1 34.9 0 0
 36 1 35.598 1.20897 0
 37 1 37.692 0 0
 38 1 36.994 1.20897 0
 39 1 39.088 0 0
 40 1 39.786 1.20897 0
 41 1 41.88 0 0
 42 1 41.182 1.20897 0
 43 1 43.276 0 0
 44 1 43.974 1.20897 0
 45 1 46.068 0 0
 46 1 45.37 1.20897 0
 47 1 47.464 0 0
 48 1 48.162 1.20897 0
 49 1 50.256 0 0
 50 1 49.558 1.20897 0
 51 1 51.652 0 0
 52 1 52.35 1.20897 0
 53 1 54.444 0 0
 54 1 53.746 1.20897 0
 55 1 55.84 0 0
 56 1 56.538 1.20897 0
 57 1 58.632 0 0
 58 1 57.934 1.20897 0
 59 1 60.028 0 0
 60 1 60.726 1.20897 0
 61 1 62.82 0 0
 62 1 62.122 1.20897 0
 63 1 64.216 0 0
 64 1 64.914 1.20897 0
 65 1 67.008 0 0
 66 1 66.31 1.20897 0
 67 1 68.404 0 0
 68 1 69.102 1.20897 0
 69 1 71.196 0 0
 70 1 70.498 1.20897 0
 71 1 72.592 0 0
 72 1 73.29 1.20897 0
 73 1 75.384 0 0
 74 1 74.686 1.20897 0
 75 1 76.78 0 0
 76 1 77.478 1.20897 0
 77 1 79.572 0 0
 78 1 78.874 1.20897 0
 79 1 80.968 0 0
 80 1 81.666 1.20897 0
 81 1 83.76 0 0
 82 1 83.062 1.20897 0
 83 1 85.156 0 0
 84 1 85.854 1.20897 0
 85 1 87.948 0 0
 86 1 87.25 1.20897 0
 87 1 89.344 0 0
 88 1 90.042 1.20897 0
 89 1 92.136 0 0
 90 1 91.438 1.20897 0
 91 1 93.532 0 0
 92 1 94.23 1.20897 0
 93 1 96.324 0 0
 94 1 95.626 1.20897 0
 95 1 97.72 0 0
 96 1 98.418 1.20897 0
 97 1 100.512 0 0
 98 1 99.814 1.20897 0
 99 1 101.908 0 0
 100 1 102.606 1.20897 0
 101 1 104.7 0 0
 102 1 104.002 1.20897 0
 103 1 106.096 0 0
 104 1 106.794 1.20897 0
 105 1 108.888 0 0
 106 1 108.19 1.20897 0
 107 1 110.284 0 0
 108 1 110.982 1.20897 0
 109 1 113.076 0 0
 110 1 112.378 1.20897 0
 111 1 114.472 0 0
 112 1 115.17 1.20897 0
 113 1 117.264 0 0
 114 1 116.566 1.20897 0
 115 1 118.66 0 0
 116 1 119.358 1.20897 0
 117 1 121.452 0 0
 118 1 120.754 1.20897 0
 119 1 122.848 0 0
 120 1 123.546 1.20897 0
 121 1 125.64 0 0
 122 1 124.942 1.20897 0
 123 1 127.036 0 0
 124 1 127.734 1.20897 0
 125 1 129.828 0 0
 126 1 129.13 1.20897 0
 127 1 131.224 0 0
 128 1 131.922 1.20897 0
 129 1 134.016 0 0
 130 1 133.318 1.20897 0
 131 1 135.412 0 0
 132 1 136.11 1.20897 0
 133 1 138.204 0 0
 134 1 137.506 1.20897 0
 135 1 139.6 0 0
 136 1 140.298 1.20897 0
 137 1 142.392 0 0
 138 1 141.694 1.20897 0
 139 1 143.788 0 0
 140 1 144.486 1.20897 0
 141 1 146.58 0 0
 142 1 145.882 1.20897 0
 143 1 147.976 0 0
 144 1 148.674 1.20897 0
 145 1 0 2.41794 0
 146 1 -0.698 3.62691 0
 147 1 1.396 2.41794 0
 148 1 2.094 3.62691 0
 149 1 4.188 2.41794 0
 150 1 3.49 3.62691 0
 151 1 5.584 2.41794 0
 152 1 6.282 3.62691 0
 153 1 8.376 2.41794 0
 154 1 7.678 3.62691 0
 155 1 9.772 2.41794 0
 156 1 10.47 3.62691 0
 157 1 12.564 2.41794 0
 158 1 11.866 3.62691 0
 159 1 13.96 2.41794 0
 160 1 14.658 3.62691 0
 161 1 16.752 2.41794 0
 162 1 16.054 3.62691 0
 163 1 18.148 2.41794 0
 164 1 18.846 3.62691 0
 165 1 20.94 2.41794 0
 166 1 20.242 3.62691 0
 167 1 22.336 2.41794 0
 168 1 23.034 3.62691 0
 169 1 25.128 2.41794 0
 170 1 24.43 3.62691 0
 171 1 26.524 2.41794 0
 172 1 27.222 3.62691 0
 173 1 29.316 2.41794 0
 174 1 28.618 3.62691 0
 175 1 30.712 2.41794 0
 176 1 31.41 3.62691 0
 177 1 33.504 2.41794 0
 178 1 32.806 3.62691 0
 179 1 34.9 2.41794 0
 180 1 35.598 3.62691 0
 181 1 37.692 2.41794 0
 182 1 36.994 3.62691 0
 183 1 39.088 2.41794 0
 184 1 39.786 3.62691 0
 185 1 41.88 2.41794 0
 186 1 41.182 3.62691 0
 187 1 43.276 2.41794 0
 188 1 43.974 3.62691 0
 189 1 46.068 2.41794 0
 190 1 45.37 3.62691 0
 191 1 47.464 2.41794 0
 192 1 48.162 3.62691 0
 193 1 50.256 2.41794 0
 194 1 49.558 3.62691 0
 195 1 51.652 2.41794 0
 196 1 52.35 3.62691 0
 197 1 54.444 2.41794 0
 198 1 53.746 3.62691 0
 199 1 55.84 2.41794 0
 200 1 56.538 3.62691 0
 201 1 58.632 2.41794 0
 202 1 57.934 3.62691 0
 203 1 60.028 2.41794 0
 204 1 60.726 3.62691 0
 205 1 62.82 2.41794 0
 206 1 62.122 3.62691 0
 207 1 64.216 2.41794 0
 208 1 64.914 3.62691 0
 209 1 67.008 2.41794 0
 210 1 66.31 3.62691 0
 211 1 68.404 2.41794 0
 212 1 69.102 3.62691 0
 213 1 71.196 2.41794 0
 214 1 70.498 3.62691 0
 215 1 72.592 2.41794 0
 216 1 73.29 3.62691 0
 217 1 75.384 2.41794 0
 218 1 74.686 3.62691 0
 219 1 76.78 2.41794 0
 220 1 77.478 3.62691 0
 221 1 79.572 2.41794 0
 222 1 78.874 3.62691 0
 223 1 80.968 2.41794 0
 224 1 81.666 3.62691 0
 225 1 83.76 2.41794 0
 226 1 83.062 3.62691 0
 227 1 85.156 2.41794 0
 228 1 85.854 3.62691 0
 229 1 87.948 2.41794 0
 230 1 87.25 3.62691 0
 231 1 89.344 2.41794 0
 232 1 90.042 3.62691 0
 233 1 92.136 2.41794 0
 234 1 91.438 3.62691 0
 235 1 93.532 2.41794 0
 236 1 94.23 3.62691 0
 237 1 96.324 2.41794 0
 238 1 95.626 3.62691 0
 239 1 97.72 2.41794 0
 240 1 98.418 3.62691 0
 241 1 100.512 2.41794 0
 242 1 99.814 3.62691 0
 243 1 101.908 2.41794 0
 244 1 102.606 3.62691 0
 245 1 104.7 2.41794 0
 246 1 104.002 3.62691 0
 247 1 106.096 2.41794 0
 248 1 106.794 3.62691 0
 249 1 108.888 2.41794 0
 250 1 108.19 3.62691 0
 251 1 110.284 2.41794 0
 252 1 110.982 3.62691 0
 253 1 113.076 2.41794 0
 254 1 112.378 3.62691 0
 255 1 114.472 2.41794 0
 256 1 115.17 3.62691 0
 257 1 117.264 2.41794 0
 258 1 116.566 3.62691 0
 259 1 118.66 2.41794 0
 260 1 119.358 3.62691 0
 261 1 121.452 2.41794 0
 262 1 120.754 3.62691 0
 263 1 122.848 2.41794 0
 264 1 123.546 3.62691 0
 265 1 125.64 2.41794 0
 266 1 124.942 3.62691 0
 267 1 127.036 2.41794 0
 268 1 127.734 3.62691 0
 269 1 129.828 2.41794 0
 270 1 129.13 3.62691 0
 271 1 131.224 2.41794 0
 272 1 131.922 3.62691 0
 273 1 134.016 2.41794 0
 274 1 133.318 3.62691 0
 275 1 135.412 2.41794 0
 276 1 136.11 3.62691 0
 277 1 138.204 2.41794 0
 278 1 137.506 3.62691 0
 279 1 139.6 2.41794 0
 280 1 140.298 3.62691 0
 281 1 142.392 2.41794 0
 282 1 141.694 3.62691 0
 283 1 143.788 2.41794 0
 284 1 144.486 3.62691 0
 285 1 146.58 2.41794 0
 286 1 145.882 3.62691 0
 287 1 147.976 2.41794 0
 288 1 148.674 3.62691 0
 289 1 0 4.83589 0
 290 1 -0.698 6.04486 0
 291 1 1.396 4.83589 0
 292 1 2.094 6.04486 0
 293 1 4.188 4.83589 0
 294 1 3.49 6.04486 0
 295 1 5.584 4.83589 0
 296 1 6.282 6.04486 0
 297 1 8.376 4.83589 0
 298 1 7.678 6.04486 0
 299 1 9.772 4.83589 0
 300 1 10.47 6.04486 0
 301 1 12.564 4.83589 0
 302 1 11.866 6.04486 0
 303 1 13.96 4.83589 0
 304 1 14.658 6.04486 0
 305 1 16.752 4.83589 0
 306 1 16.054 6.04486 0
 307 1 18.148 4.83589 0
 308 1 18.846 6.04486 0
 309 1 20.94 4.83589 0
 310 1 20.242 6.04486 0
 311 1 22.336 4.83589 0
 312 1 23.034 6.04486 0
 313 1 25.128 4.83589 0
 314 1 24.43 6.04486 0
 315 1 26.524 4.83589 0
 316 1 27.222 6.04486 0
 317 1 29.316 4.83589 0
 318 1 28.618 6.04486 0
 319 1 30.712 4.83589 0
 320 1 31.41 6.04486 0
 321 1 33.504 4.83589 0
 322 1 32.806 6.04486 0
 323 1 34.9 4.83589 0
 324 1 35.598 6.04486 0
 325 1 37.692 4.83589 0
 326 1 36.994 6.04486 0
 327 1 39.088 4.83589 0
 328 1 39.786 6.04486 0
 329 1 41.88 4.83589 0
 330 1 41.182 6.04486 0
 331 1 43.276 4.83589 0
 332 1 43.974 6.04486 0
 333 1 46.068 4.83589 0
 334 1 45.37 6.04486 0
 335 1 47.464 4.83589 0
 336 1 48.162 6.04486 0
 337 1 50.256 4.83589 0
 338 1 49.558 6.04486 0
 339 1 51.652 4.83589 0
 340 1 52.35 6.04486 0
 341 1 54.444 4.83589 0
 342 1 53.746 6.04486 0
 343 1 55.84 4.83589 0
 344 1 56.538 6.04486 0
 345 1 58.632 4.83589 0
 346 1 57.934 6.04486 0
 347 1 60.028 4.83589 0
 348 1 60.726 6.04486 0
 349 1 62.82 4.83589 0
 350 1 62.122 6.04486 0
 351 1 64.216 4.83589 0
 352 1 64.914 6.04486 0
 353 1 67.008 4.83589 0
 354 1 66.31 6.04486 0
 355 1 68.404 4.83589 0
 356 1 69.102 6.04486 0
 357 1 71.196 4.83589 0
 358 1 70.498 6.04486 0
 359 1 72.592 4.83589 0
 360 1 73.29 6.04486 0
 361 1 75.384 4.83589 0
 362 1 74.686 6.04486 0
 363 1 76.78 4.83589 0
 364 1 77.478 6.04486 0
 365 1 79.572 4.83589 0
 366 1 78.874 6.04486 0
 367 1 80.968 4.83589 0
 368 1 81.666 6.04486 0
 369 1 83.76 4.83589 0
 370 1 83.062 6.04486 0
 371 1 85.156 4.83589 0
 372 1 85.854 6.04486 0
 373 1 87.948 4.83589 0
 374 1 87.25 6.04486 0
 375 1 89.344 4.83589 0
 376 1 90.042 6.04486 0
 377 1 92.136 4.83589 0
 378 1 91.438 6.04486 0
 379 1 93.532 4.83589 0
 380 1 94.23 6.04486 0
 381 1 96.324 4.83589 0
 382 1 95.626 6.04486 0
 383 1 97.72 4.83589 0
 384 1 98.418 6.04486 0
 385 1 100.512 4.83589 0
 386 1 99.814 6.04486 0
 387 1 101.908 4.83589 0
 388 1 102.606 6.04486 0
 389 1 104.7 4.83589 0
 390 1 104.002 6.04486 0
 391 1 106.096 4.83589 0
 392 1 106.794 6.04486 0
 393 1 108.888 4.83589 0
 394 1 108.19 6.04486 0
 395 1 110.284 4.83589 0
 396 1 110.982 6.04486 0
 397 1 113.076 4.83589 0
 398 1 112.378 6.04486 0
 399 1 114.472 4.83589 0
 400 1 115.17 6.04486 0
 401 1 117.264 4.83589 0
 402 1 116.566 6.04486 0
 403 1 118.66 4.83589 0
 404 1 119.358 6.04486 0
 405 1 121.452 4.83589 0
 406 1 120.754 6.04486 0
 407 1 122.848 4.83589 0
 408 1 123.546 6.04486 0
 409 1 125.64 4.83589 0
 410 1 124.942 6.04486 0
 411 1 127.036 4.83589 0
 412 1 127.734 6.04486 0
 413 1 129.828 4.83589 0
 414 1 129.13 6.04486 0
 415 1 131.224 4.83589 0
 416 1 131.922 6.04486 0
 417 1 134.016 4.83589 0
 418 1 133.318 6.04486 0
 419 1 135.412 4.83589 0
 420 1 136.11 6.04486 0
 421 1 138.204 4.83589 0
 422 1 137.506 6.04486 0
 423 1 139.6 4.83589 0
 424 1 140.298 6.04486 0
 425 1 142.392 4.83589 0
 426 1 141.694 6.04486 0
 427 1 143.788 4.83589 0
 428 1 144.486 6.04486 0
 429 1 146.58 4.83589 0
 430 1 145.882 6.04486 0
 431 1 147.976 4.83589 0
 432 1 148.674 6.04486 0
 433 1 0 7.25383 0
 434 1 -0.698 8.4628 0
 435 1 1.396 7.25383 0
 436 1 2.094 8.4628 0
 437 1 4.188 7.25383 0
 438 1 3.49 8.4628 0
 439 1 5.584 7.25383 0
 440 1 6.282 8.4628 0
 441 1 8.376 7.25383 0
 442 1 7.678 8.4628 0
 443 1 9.772 7.25383 0
 444 1 10.47 8.4628 0
 445 1 12.564 7.25383 0
 446 1 11.866 8.4628 0
 447 1 13.96 7.25383 0
 448 1 14.658 8.4628 0
 449 1 16.752 7.25383 0
 450 1 16.054 8.4628 0
 451 1 18.148 7.25383 0
 452 1 18.846 8.4628 0
 453 1 20.94 7.25383 0
 454 1 20.242 8.4628 0
 455 1 22.336 7.25383 0
 456 1 23.034 8.4628 0
 457 1 25.128 7.25383 0
 458 1 24.43 8.4628 0
 459 1 26.524 7.25383 0
 460 1 27.222 8.4628 0
 461 1 29.316 7.25383 0
 462 1 28.618 8.4628 0
 463 1 30.712 7.25383 0
 464 1 31.41 8.4628 0
 465 1 33.504 7.25383 0
 466 1 32.806 8.4628 0
 467 1 34.9 7.25383 0
 468 1 35.598 8.4628 0
 469 1 37.692 7.25383 0
 470 1 36.994 8.4628 0
 471 1 39.088 7.25383 0
 472 1 39.786 8.4628 0
 473 1 41.88 7.25383 0
 474 1 41.182 8.4628 0
 475 1 43.276 7.25383 0
 476 1 43.974 8.4628 0
 477 1 46.068 7.25383 0
 478 1 45.37 8.4628 0
 479 1 47.464 7.25383 0
 480 1 48.162 8.4628 0
 481 1 50.256 7.25383 0
 482 1 49.558 8.4628 0
 483 1 51.652 7.25383 0
 484 1 52.35 8.4628 0
 485 1 54.444 7.25383 0
 486 1 53.746 8.4628 0
 487 1 55.84 7.25383 0
 488 1 56.538 8.4628 0
 489 1 58.632 7.25383 0
 490 1 57.934 8.4628 0
 491 1 60.028 7.25383 0
 492 1 60.726 8.4628 0
 493 1 62.82 7.25383 0
 494 1 62.122 8.4628 0
 495 1 64.216 7.25383 0
 496 1 64.914 8.4628 0
 497 1 67.008 7.25383 0
 498 1 66.31 8.4628 0
 499 1 68.404 7.25383 0
 500 1 69.102 8.4628 0
 501 1 71.196 7.25383 0
 502 1 70.498 8.4628 0
 503 1 72.592 7.25383 0
 504 1 73.29 8.4628 0
 505 1 75.384 7.25383 0
 506 1 74.686 8.4628 0
 507 1 76.78 7.25383 0
 508 1 77.478 8.4628 0
 509 1 79.572 7.25383 0
 510 1 78.874 8.4628 0
 511 1 80.968 7.25383 0
 512 1 81.666 8.4628 0
 513 1 83.76 7.25383 0
 514 1 83.062 8.4628 0
 515 1 85.156 7.25383 0
 516 1 85.854 8.4628 0
 517 1 87.948 7.25383 0
 518 1 87.25 8.4628 0
 519 1 89.344 7.25383 0
 520 1 90.042 8.4628 0
 521 1 92.136 7.25383 0
 522 1 91.438 8.4628 0
 523 1 93.532 7.25383 0
 524 1 94.23 8.4628 0
 525 1 96.324 7.25383 0
 526 1 95.626 8.4628 0
 527 1 97.72 7.25383 0
 528 1 98.418 8.4628 0
 529 1 100.512 7.25383 0
 530 1 99.814 8.4628 0
 531 1 101.908 7.25383 0
 532 1 102.606 8.4628 0
 533 1 104.7 7.25383 0
 534 1 104.002 8.4628 0
 535 1 106.096 7.25383 0
 536 1 106.794 8.4628 0
 537 1 108.888 7.25383 0
 538 1 108.19 8.4628 0
 539 1 110.284 7.25383 0
 540 1 110.982 8.4628 0
 541 1 113.076 7.25383 0
 542 1 112.378 8.4628 0
 543 1 114.472 7.25383 0
 544 1 115.17 8.4628 0
 545 1 117.264 7.25383 0
 546 1 116.566 8.4628 0
 547 1 118.66 7.25383 0
 548 1 119.358 8.4628 0
 549 1 121.452 7.25383 0
 550 1 120.754 8.4628 0
 551 1 122.848 7.25383 0
 552 1 123.546 8.4628 0
 553 1 125.64 7.25383 0
 554 1 124.942 8.4628 0
 555 1 127.036 7.25383 0
 556 1 127.734 8.4628 0
 557 1 129.828 7.25383 0
 558 1 129.13 8.4628 0
 559 1 131.224 7.25383 0
 560 1 131.922 8.4628 0
 561 1 134.016 7.25383 0
 562 1 133.318 8.4628 0
 563 1 135.412 7.25383 0
 564 1 136.11 8.4628 0
 565 1 138.204 7.25383 0
 566 1 137.506 8.4628 0
 567 1 139.6 7.25383 0
 568 1 140.298 8.4628 0
 569 1 142.392 7.25383 0
 570 1 141.694 8.4628 0
 571 1 143.788 7.25383 0
 572 1 144.486 8.4628 0
 573 1 146.58 7.25383 0
 574 1 145.882 8.4628 0
 575 1 147.976 7.25383 0
 576 1 148.674 8.4628 0
 577 1 0 9.67177 0
 578 1 -0.698 10.8807 0
 579 1 1.396 9.67177 0
 580 1 2.094 10.8807 0
 581 1 4.188 9.67177 0
 582 1 3.49 10.8807 0
 583 1 5.584 9.67177 0
 584 1 6.282 10.8807 0
 585 1 8.376 9.67177 0
 586 1 7.678 10.8807 0
 587 1 9.772 9.67177 0
 588 1 10.47 10.8807 0
 589 1 12.564 9.67177 0
 590 1 11.866 10.8807 0
 591 1 13.96 9.67177 0
 592 1 14.658 10.8807 0
 593 1 16.752 9.67177 0
 594 1 16.054 10.8807 0
 595 1 18.148 9.67177 0
 596 1 18.846 10.8807 0
 597 1 20.94 9.67177 0
 598 1 20.242 10.8807 0
 599 1 22.336 9.67177 0
 600 1 23.034 10.8807 0
 601 1 25.128 9.67177 0
 602 1 24.43 10.8807 0
 603 1 26.524 9.67177 0
 604 1 27.222 10.8807 0
 605 1 29.316 9.67177 0
 606 1 28.618 10.8807 0
 607 1 30.712 9.67177 0
 608 1 31.41 10.8807 0
 609 1 33.504 9.67177 0
 610 1 32.806 10.8807 0
 611 1 34.9 9.67177 0
 612 1 35.598 10.8807 0
 613 1 37.692 9.67177 0
 614 1 36.994 10.8807 0
 615 1 39.088 9.67177 0
 616 1 39.786 10.8807 0
 617 1 41.88 9.67177 0
 618 1 41.182 10.8807 0
 619 1 43.276 9.67177 0
 620 1 43.974 10.8807 0
 621 1 46.068 9.67177 0
 622 1 45.37 10.8807 0
 623 1 47.464 9.67177 0
 624 1 48.162 10.8807 0
 625 1 50.256 9.67177 0
 626 1 49.558 10.8807 0
 627 1 51.652 9.67177 0
 628 1 52.35 10.8807 0
 629 1 54.444 9.67177 0
 630 1 53.746 10.8807 0
 631 1 55.84 9.67177 0
 632 1 56.538 10.8807 0
 633 1 58.632 9.67177 0
 634 1 57.934 10.8807 0
 635 1 60.028 9.67177 0
 636 1 60.726 10.8807 0
 637 1 62.82 9.67177 0
 638 1 62.122 10.8807 0
 639 1 64.216 9.67177 0
 640 1 64.914 10.8807 0
 641 1 67.008 9.67177 0
 642 1 66.31 10.8807 0
 643 1 68.404 9.67177 0
 644 1 69.102 10.8807 0
 645 1 71.196 9.67177 0
 646 1 70.498 10.8807 0
 647 1 72.592 9.67177 0
 648 1 73.29 10.8807 0
 649 1 75.384 9.67177 0
 650 1 74.686 10.8807 0
 651 1 76.78 9.67177 0
 652 1 77.478 10.8807 0
 653 1 79.572 9.67177 0
 654 1 78.874 10.8807 0
 655 1 80.968 9.67177 0
 656 1 81.666 10.8807 0
 657 1 83.76 9.67177 0
 658 1 83.062 10.8807 0
 659 1 85.156 9.67177 0
 660 1 85.854 10.8807 0
 661 1 87.948 9.67177 0
 662 1 87.25 10.8807 0
 663 1 89.344 9.67177 0
 664 1 90.042 10.8807 0
 665 1 92.136 9.67177 0
 666 1 91.438 10.8807 0
 667 1 93.532 9.67177 0
 668 1 94.23 10.8807 0
 669 1 96.324 9.67177 0
 670 1 95.626 10.8807 0
 671 1 97.72 9.67177 0
 672 1 98.418 10.8807 0
 673 1 100.512 9.67177 0
 674 1 99.814 10.8807 0
 675 1 101.908 9.67177 0
 676 1 102.606 10.8807 0
 677 1 104.7 9.67177 0
 678 1 104.002 10.8807 0
 679 1 106.096 9.67177 0
 680 1 106.794 10.8807 0
 681 1 108.888 9.67177 0
 682 1 108.19 10.8807 0
 683 1 110.284 9.67177 0
 684 1 110.982 10.8807 0
 685 1 113.076 9.67177 0
 686 1 112.378 10.8807 0
 687 1 114.472 9.67177 0
 688 1 115.17 10.8807 0
 689 1 117.264 9.67177 0
 690 1 116.566 10.8807 0
 691 1 118.66 9.67177 0
 692 1 119.358 10.8807 0
 693 1 121.452 9.67177 0
 694 1 120.754 10.8807 0
 695 1 122.848 9.67177 0
 696 1 123.546 10.8807 0
 697 1 125.64 9.67177 0
 698 1 124.942 10.8807 0
 699 1 127.036 9.67177 0
 700 1 127.734 10.8807 0
 701 1 129.828 9.67177 0
 702 1 129.13 10.8807 0
 703 1 131.224 9.67177 0
 704 1 131.922 10.8807 0
 705 1 134.016 9.67177 0
 706 1 133.318 10.8807 0
 707 1 135.412 9.67177 0
 708 1 136.11 10.8807 0
 709 1 138.204 9.67177 0
 710 1 137.506 10.8807 0
 711 1 139.6 9.67177 0
 712 1 140.298 10.8807 0
 713 1 142.392 9.67177 0
 714 1 141.694 10.8807 0
 715 1 143.788 9.67177 0
 716 1 144.486 10.8807 0
 717 1 146.58 9.67177 0
 718 1 145.882 10.8807 0
 719 1 147.976 9.67177 0
 720 1 148.674 10.8807 0
 721 1 0 12.0897 0
 722 1 -0.698 13.2987 0
 723 1 1.396 12.0897 0
 724 1 2.094 13.2987 0
 725 1 4.188 12.0897 0
 726 1 3.49 13.2987 0
 727 1 5.584 12.0897 0
 728 1 6.282 13.2987 0
 729 1 8.376 12.0897 0
 730 1 7.678 13.2987 0
 731 1 9.772 12.0897 0
 732 1 10.47 13.2987 0
 733 1 12.564 12.0897 0
 734 1 11.866 13.2987 0
 735 1 13.96 12.0897 0
 736 1 14.658 13.2987 0
 737 1 16.752 12.0897 0
 738 1 16.054 13.2987 0
 739 1 18.148 12.0897 0
 740 1 18.846 13.2987 0
 741 1 20.94 12.0897 0
 742 1 20.242 13.2987 0
 743 1 22.336 12.0897 0
 744 1 23.034 13.2987 0
 745 1 25.128 12.0897 0
 746 1 24.43 13.2987 0
 747 1 26.524 12.0897 0
 748 1 27.222 13.2987 0
 749 1 29.316 12.0897 0
 750 1 28.618 13.2987 0
 751 1 30.712 12.0897 0
 752 1 31.41 13.2987 0
 753 1 33.504 12.0897 0
 754 1 32.806 13.2987 0
 755 1 34.9 12.0897 0
 756 1 35.598 13.2987 0
 757 1 37.692 12.0897 0
 758 1 36.994 13.2987 0
 759 1 39.088 12.0897 0
 760 1 39.786 13.2987 0
 761 1 41.88 12.0897 0
 762 1 41.182 13.2987 0
 763 1 43.276 12.0897 0
 764 1 43.974 13.2987 0
 765 1 46.068 12.0897 0
 766 1 45.37 13.2987 0
 767 1 47.464 12.0897 0
 768 1 48.162 13.2987 0
 769 1 50.256 12.0897 0
 770 1 49.558 13.2987 0
 771 1 51.652 12.0897 0
 772 1 52.35 13.2987 0
 773 1 54.444 12.0897 0
 774 1 53.746 13.2987 0
 775 1 55.84 12.0897 0
 776 1 56.538 13.2987 0
 777 1 58.632 12.0897 0
 778 1 57.934 13.2987 0
 779 1 60.028 12.0897 0
 780 1 60.726 13.2987 0
 781 1 62.82 12.0897 0
 782 1 62.122 13.2987 0
 783 1 64.216 12.0897 0
 784 1 64.914 13.2987 0
 785 1 67.008 12.0897 0
 786 1 66.31 13.2987 0
 787 1 68.404 12.0897 0
 788 1 69.102 13.2987 0
 789 1 71.196 12.0897 0
 790 1 70.498 13.2987 0
 791 1 72.592 12.0897 0
 792 1 73.29 13.2987 0
 793 1 75.384 12.0897 0
 794 1 74.686 13.2987 0
 795 1 76.78 12.0897 0
 796 1 77.478 13.2987 0
 797 1 79.572 12.0897 0
 798 1 78.874 13.2987 0
 799 1 80.968 12.0897 0
 800 1 81.666 13.2987 0
 801 1 83.76 12.0897 0
 802 1 83.062 13.2987 0
 803 1 85.156 12.0897 0
 804 1 85.854 13.2987 0
 805 1 87.948 12.0897 0
 806 1 87.25 13.2987 0
 807 1 89.344 12.0897 0
 808 1 90.042 13.2987 0
 809 1 92.136 12.0897 0
 810 1 91.438 13.2987 0
 811 1 93.532 12.0897 0
 812 1 94.23 13.2987 0
 813 1 96.324 12.0897 0
 814 1 95.626 13.2987 0
 815 1 97.72 12.0897 0
 816 1 98.418 13.2987 0
 817 1 100.512 12.0897 0
 818 1 99.814 13.2987 0
 819 1 101.908 12.0897 0
 820 1 102.606 13.2987 0
 821 1 104.7 12.0897 0
 822 1 104.002 13.2987 0
 823 1 106.096 12.0897 0
 824 1 106.794 13.2987 0
 825 1 108.888 12.0897 0
 826 1 108.19 13.2987 0
 827 1 110.284 12.0897 0
 828 1 110.982 13.2987 0
 829 1 113.076 12.0897 0
 830 1 112.378 13.2987 0
 831 1 114.472 12.0897 0
 832 1 115.17 13.2987 0
 833 1 117.264 12.0897 0
 834 1 116.566 13.2987 0
 835 1 118.66 12.0897 0
 836 1 119.358 13.2987 0
 837 1 121.452 12.0897 0
 838 1 120.754 13.2987 0
 839 1 122.848 12.0897 0
 840 1 123.546 13.2987 0
 841 1 125.64 12.0897 0
 842 1 124.942 13.2987 0
 843 1 127.036 12.0897 0
 844 1 127.734 13.2987 0
 845 1 129.828 12.0897 0
 846 1 129.13 13.2987 0
 847 1 131.224 12.0897 0
 848 1 131.922 13.2987 0
 849 1 134.016 12.0897 0
 850 1 133.318 13.2987 0
 851 1 135.412 12.0897 0
 852 1 136.11 13.2987 0
 853 1 138.204 12.0897 0
 854 1 137.506 13.2987 0
 855 1 139.6 12.0897 0
 856 1 140.298 13.2987 0
 857 1 142.392 12.0897 0
 858 1 141.694 13.2987 0
 859 1 143.788 12.0897 0
 860 1 144.486 13.2987 0
 861 1 146.58 12.0897 0
 862 1 145.882 13.2987 0
 863 1 147.976 12.0897 0
 864 1 148.674 13.2987 0
 865 1 0 14.5077 0
 866 1 -0.698 15.7166 0
 867 1 1.396 14.5077 0
 868 1 2.094 15.7166 0
 869 1 4.188 14.5077 0
 870 1 3.49 15.7166 0
 871 1 5.584 14.5077 0
 872 1 6.282 15.7166 0
 873 1 8.376 14.5077 0
 874 1 7.678 15.7166 0
 875 1 9.772 14.5077 0
 876 1 10.47 15.7166 0
 877 1 12.564 14.5077 0
 878 1 11.866 15.7166 0
 879 1 13.96 14.5077 0
 880 1 14.658 15.7166 0
 881 1 16.752 14.5077 0
 882 1 16.054 15.7166 0
 883 1 18.148 14.5077 0
 884 1 18.846 15.7166 0
 885 1 20.94 14.5077 0
 886 1 20.242 15.7166 0
 887 1 22.336 14.5077 0
 888 1 23.034 15.7166 0
 889 1 25.128 14.5077 0
 890 1 24.43 15.7166 0
 891 1 26.524 14.5077 0
 892 1 27.222 15.7166 0
 893 1 29.316 14.5077 0
 894 1 28.618 15.7166 0
 895 1 30.712 14.5077 0
 896 1 31.41 15.7166 0
 897 1 33.504 14.5077 0
 898 1 32.806 15.7166 0
 899 1 34.9 14.5077 0
 900 1 35.598 15.7166 0
 901 1 37.692 14.5077 0
 902 1 36.994 15.7166 0
 903 1 39.088 14.5077 0
 904 1 39.786 15.7166 0
 905 1 41.88 14.5077 0
 906 1 41.182 15.7166 0
 907 1 43.276 14.5077 0
 908 1 43.974 15.7166 0
 909 1 46.068 14.5077 0
 910 1 45.37 15.7166 0
 911 1 47.464 14.5077 0
 912 1 48.162 15.7166 0
 913 1 50.256 14.5077 0
 914 1 49.558 15.7166 0
 915 1 51.652 14.5077 0
 916 1 52.35 15.7166 0
 917 1 54.444 14.5077 0
 918 1 53.746 15.7166 0
 919 1 55.84 14.5077 0
 920 1 56.538 15.7166 0
 921 1 58.632 14.5077 0
 922 1 57.934 15.7166 0
 923 1 60.028 14.5077 0
 924 1 60.726 15.7166 0
 925 1 62.82 14.5077 0
 926 1 62.122 15.7166 0
 927 1 64.216 14.5077 0
 928 1 64.914 15.7166 0
 929 1 67.008 14.5077 0
 930 1 66.31 15.7166 0
 931 1 68.404 14.5077 0
 932 1 69.102 15.7166 0
 933 1 71.196 14.5077 0
 934 1 70.498 15.7166 0
 935 1 72.592 14.5077 0
 936 1 73.29 15.7166 0
 937 1 75.384 14.5077 0
 938 1 74.686 15.7166 0
 939 1 76.78 14.5077 0
 940 1 77.478 15.7166 0
 941 1 79.572 14.5077 0
 942 1 78.874 15.7166 0
 943 1 80.968 14.5077 0
 944 1 81.666 15.7166 0
 945 1 83.76 14.5077 0
 946 1 83.062 15.7166 0
 947 1 85.156 14.5077 0
 948 1 85.854 15.7166 0
 949 1 87.948 14.5077 0
 950 1 87.25 15.7166 0
 951 1 89.344 14.5077 0
 952 1 90.042 15.7166 0
 953 1 92.136 14.5077 0
 954 1 91.438 15.7166 0
 955 1 93.532 14.5077 0
 956 1 94.23 15.7166 0
 957 1 96.324 14.5077 0
 958 1 95.626 15.7166 0
 959 1 97.72 14.5077 0
 960 1 98.418 15.7166 0
 961 1 100.512 14.5077 0
 962 1 99.814 15.7166 0
 963 1 101.908 14.5077 0
 964 1 102.606 15.7166 0
 965 1 104.7 14.5077 0
 966 1 104.002 15.7166 0
 967 1 106.096 14.5077 0
 968 1 106.794 15.7166 0
 969 1 108.888 14.5077 0
 970 1 108.19 15.7166 0
 971 1 110.284 14.5077 0
 972 1 110.982 15.7166 0
 973 1 113.076 14.5077 0
 974 1 112.378 15.7166 0
 975 1 114.472 14.5077 0
 976 1 115.17 15.7166 0
 977 1 117.264 14.5077 0
 978 1 116.566 15.7166 0
 979 1 118.66 14.5077 0
 980 1 119.358 15.7166 0
 981 1 121.452 14.5077 0
 982 1 120.754 15.7166 0
 983 1 122.848 14.5077 0
 984 1 123.546 15.7166 0
 985 1 125.64 14.5077 0
 986 1 124.942 15.7166 0
 987 1 127.036 14.5077 0
 988 1 127.734 15.7166 0
 989 1 129.828 14.5077 0
 990 1 129.13 15.7166 0
 991 1 131.224 14.5077 0
 992 1 131.922 15.7166 0
 993 1 134.016 14.5077 0
 994 1 133.318 15.7166 0
 995 1 135.412 14.5077 0
 996 1 136.11 15.7166 0
 997 1 138.204 14.5077 0
 998 1 137.506 15.7166 0
 999 1 139.6 14.5077 0
 1000 1 140.298 15.7166 0
 1001 1 142.392 14.5077 0
 1002 1 141.694 15.7166 0
 1003 1 143.788 14.5077 0
 1004 1 144.486 15.7166 0
 1005 1 146.58 14.5077 0
 1006 1 145.882 15.7166 0
 1007 1 147.976 14.5077 0
 1008 1 148.674 15.7166 0
 1009 1 0 16.9256 0
 1010 1 -0.698 18.1346 0
 1011 1 1.396 16.9256 0
 1012 1 2.094 18.1346 0
 1013 1 4.188 16.9256 0
 1014 1 3.49 18.1346 0
 1015 1 5.584 16.9256 0
 1016 1 6.282 18.1346 0
 1017 1 8.376 16.9256 0
 1018 1 7.678 18.1346 0
 1019 1 9.772 16.9256 0
 1020 1 10.47 18.1346 0
 1021 1 12.564 16.9256 0
 1022 1 11.866 18.1346 0
 1023 1 13.96 16.9256 0
 1024 1 14.658 18.1346 0
 1025 1 16.752 16.9256 0
 1026 1 16.054 18.1346 0
 1027 1 18.148 16.9256 0
 1028 1 18.846 18.1346 0
 1029 1 20.94 16.9256 0
 1030 1 20.242 18.1346 0
 1031 1 22.336 16.9256 0
 1032 1 23.034 18.1346 0
 1033 1 25.128 16.9256 0
 1034 1 24.43 18.1346 0
 1035 1 26.524 16.9256 0
 1036 1 27.222 18.1346 0
 1037 1 29.316 16.9256 0
 1038 1 28.618 18.1346 0
 1039 1 30.712 16.9256 0
 1040 1 31.41 18.1346 0
 1041 1 33.504 16.9256 0
 1042 1 32.806 18.1346 0
 1043 1 34.9 16.9256 0
 1044 1 35.598 18.1346 0
 1045 1 37.692 16.9256 0
 1046 1 36.994 18.1346 0
 1047 1 39.088 16.9256 0
 1048 1 39.786 18.1346 0
 1049 1 41.88 16.9256 0
 1050 1 41.182 18.1346 0
 1051 1 43.276 16.9256 0
 1052 1 43.974 18.1346 0
 1053 1 46.068 16.9256 0
 1054 1 45.37 18.1346 0
 1055 1 47.464 16.9256 0
 1056 1 48.162 18.1346 0
 1057 1 50.256 16.9256 0
 1058 1 49.558 18.1346 0
 1059 1 51.652 16.9256 0
 1060 1 52.35 18.1346 0
 1061 1 54.444 16.9256 0
 1062 1 53.746 18.1346 0
 1063 1 55.84 16.9256 0
 1064 1 56.538 18.1346 0
 1065 1 58.632 16.9256 0
 1066 1 57.934 18.1346 0
 1067 1 60.028 16.9256 0
 1068 1 60.726 18.1346 0
 1069 1 62.82 16.9256 0
 1070 1 62.122 18.1346 0
 1071 1 64.216 16.9256 0
 1072 1 64.914 18.1346 0
 1073 1 67.008 16.9256 0
 1074 1 66.31 18.1346 0
 1075 1 68.404 16.9256 0
 1076 1 69.102 18.1346 0
 1077 1 71.196 16.9256 0
 1078 1 70.498 18.1346 0
 1079 1 72.592 16.9256 0
 1080 1 73.29 18.1346 0
 1081 1 75.384 16.9256 0
 1082 1 74.686 18.1346 0
 1083 1 76.78 16.9256 0
 1084 1 77.478 18.1346 0
 1085 1 79.572 16.9256 0
 1086 1 78.874 18.1346 0
 1087 1 80.968 16.9256 0
 1088 1 81.666 18.1346 0
 1089 1 83.76 16.9256 0
 1090 1 83.062 18.1346 0
 1091 1 85.156 16.9256 0
 1092 1 85.854 18.1346 0
 1093 1 87.948 16.9256 0
 1094 1 87.25 18.1346 0
 1095 1 89.344 16.9256 0
 1096 1 90.042 18.1346 0
 1097 1 92.136 16.9256 0
 1098 1 91.438 18.1346 0
 1099 1 93.532 16.9256 0
 1100 1 94.23 18.1346 0
 1101 1 96.324 16.9256 0
 1102 1 95.626 18.1346 0
 1103 1 97.72 16.9256 0
 1104 1 98.418 18.1346 0
 1105 1 100.512 16.9256 0
 1106 1 99.814 18.1346 0
 1107 1 101.908 16.9256 0
 1108 1 102.606 18.1346 0
 1109 1 104.7 16.9256 0
 1110 1 104.002 18.1346 0
 1111 1 106.096 16.9256 0
 1112 1 106.794 18.1346 0
 1113 1 108.888 16.9256 0
 1114 1 108.19 18.1346 0
 1115 1 110.284 16.9256 0
 1116 1 110.982 18.1346 0
 1117 1 113.076 16.9256 0
 1118 1 112.378 18.1346 0
 1119 1 114.472 16.9256 0
 1120 1 115.17 18.1346 0
 1121 1 117.264 16.9256 0
 1122 1 116.566 18.1346 0
 1123 1 118.66 16.9256 0
 1124 1 119.358 18.1346 0
 1125 1 121.452 16.9256 0
 1126 1 120.754 18.1346 0
 1127 1 122.848 16.9256 0
 1128 1 123.546 18.1346 0
 1129 1 125.64 16.9256 0
 1130 1 124.942 18.1346 0
 1131 1 127.036 16.9256 0
 1132 1 127.734 18.1346 0
 1133 1 129.828 16.9256 0
 1134 1 129.13 18.1346 0
 1135 1 131.224 16.9256 0
 1136 1 131.922 18.1346 0
 1137 1 134.016 16.9256 0
 1138 1 133.318 18.1346 0
 1139 1 135.412 16.9256 0
 1140 1 136.11 18.1346 0
 1141 1 138.204 16.9256 0
 1142 1 137.506 18.1346 0
 1143 1 139.6 16.9256 0
 1144 1 140.298 18.1346 0
 1145 1 142.392 16.9256 0
 1146 1 141.694 18.1346 0
 1147 1 143.788 16.9256 0
 1148 1 144.486 18.1346 0
 1149 1 146.58 16.9256 0
 1150 1 145.882 18.1346 0
 1151 1 147.976 16.9256 0
 1152 1 148.674 18.1346 0
 1153 1 0 19.3435 0
 1154 1 -0.698 20.5525 0
 1155 1 1.396 19.3435 0
 1156 1 2.094 20.5525 0
 1157 1 4.188 19.3435 0
 1158 1 3.49 20.5525 0
 1159 1 5.584 19.3435 0
 1160 1 6.282 20.5525 0
 1161 1 8.376 19.3435 0
 1162 1 7.678 20.5525 0
 1163 1 9.772 19.3435 0
 1164 1 10.47 20.5525 0
 1165 1 12.564 19.3435 0
 1166 1 11.866 20.5525 0
 1167 1 13.96 19.3435 0
 1168 1 14.658 20.5525 0
 1169 1 16.752 19.3435 0
 1170 1 16.054 20.5525 0
 1171 1 18.148 19.3435 0
 1172 1 18.846 20.5525 0
 1173 1 20.94 19.3435 0
 1174 1 20.242 20.5525 0
 1175 1 22.336 19.3435 0
 1176 1 23.034 20.5525 0
 1177 1 25.128 19.3435 0
 1178 1 24.43 20.5525 0
 1179 1 26.524 19.3435 0
 1180 1 27.222 20.5525 0
 1181 1 29.316 19.3435 0
 1182 1 28.618 20.5525 0
 1183 1 30.712 19.3435 0
 1184 1 31.41 20.5525 0
 1185 1 33.504 19.3435 0
 1186 1 32.806 20.5525 0
 1187 1 34.9 19.3435 0
 1188 1 35.598 20.5525 0
 1189 1 37.692 19.3435 0
 1190 1 36.994 20.5525 0
 1191 1 39.088 19.3435 0
 1192 1 39.786 20.5525 0
 1193 1 41.88 19.3435 0
 1194 1 41.182 20.5525 0
 1195 1 43.276 19.3435 0
 1196 1 43.974 20.5525 0
 1197 1 46.068 19.3435 0
 1198 1 45.37 20.5525 0
 1199 1 47.464 19.3435 0
 1200 1 48.162 20.5525 0
 1201 1 50.256 19.3435 0
 1202 1 49.558 20.5525 0
 1203 1 51.652 19.3435 0
 1204 1 52.35 20.5525 0
 1205 1 54.444 19.3435 0
 1206 1 53.746 20.5525 0
 1207 1 55.84 19.3435 0
 1208 1 56.538 20.5525 0
 1209 1 58.632 19.3435 0
 1210 1 57.934 20.5525 0